/*--------------------------------*- C++ -*----------------------------------*\
| =========                 |                                                 |
| \\      /  F ield         | OpenFOAM: The Open Source CFD Toolbox           |
|  \\    /   O peration     | Version:  dev                                   |
|   \\  /    A nd           | Web:      www.OpenFOAM.org                      |
|    \\/     M anipulation  |                                                 |
\*---------------------------------------------------------------------------*/
FoamFile
{
    version     2.0;
    format      ascii;
    class       volScalarField;
    location    "0";
    object      moment.0.populationBalance;
}
// * * * * * * * * * * * * * * * * * * * * * * * * * * * * * * * * * * * * * //

dimensions      [0 -3 0 0 0 0 0];

internalField   nonuniform List<scalar> 
100
(
0
6.47572717671e-10
3.28052755066e-06
0.000130046859633
0.00102294595547
0.00385234397527
0.00973999141093
0.0193557349986
0.0328686401832
0.0500726464564
0.0705425822184
0.0937609471787
0.119202922022
0.146385368682
0.174890069817
0.204370582231
0.234549714287
0.265212315129
0.296196255672
0.327383226481
0.358690170268
0.390061677869
0.421463397591
0.452876358806
0.484292037752
0.515707962248
0.547123641194
0.578536602409
0.609938322131
0.641309829732
0.672616773519
0.703803744328
0.734787684871
0.765450285713
0.795629417769
0.825109930183
0.853614631318
0.880797077978
0.906239052821
0.929457417782
0.949927353544
0.967131359817
0.980644265001
0.990260008589
0.996147656025
0.998977054045
0.99986995314
0.999996719472
0.999999999352
1
1
0.999999999352
0.999996719472
0.99986995314
0.998977054045
0.996147656025
0.990260008589
0.980644265001
0.967131359817
0.949927353544
0.929457417782
0.906239052821
0.880797077978
0.853614631318
0.825109930183
0.795629417769
0.765450285713
0.734787684871
0.703803744328
0.672616773519
0.641309829732
0.609938322131
0.578536602409
0.547123641194
0.515707962248
0.484292037752
0.452876358806
0.421463397591
0.390061677869
0.358690170268
0.327383226481
0.296196255672
0.265212315129
0.234549714287
0.204370582231
0.174890069817
0.146385368682
0.119202922022
0.0937609471787
0.0705425822184
0.0500726464564
0.0328686401832
0.0193557349986
0.00973999141093
0.00385234397527
0.00102294595547
0.000130046859633
3.28052755066e-06
6.47572717671e-10
0
)
;

boundaryField
{
    left
    {
        type            cyclic;
    }
    right
    {
        type            cyclic;
    }
    frontAndBack
    {
        type            empty;
    }
}


// ************************************************************************* //
