/*--------------------------------*- C++ -*----------------------------------*\
| =========                 |                                                 |
| \\      /  F ield         | OpenFOAM: The Open Source CFD Toolbox           |
|  \\    /   O peration     | Version:  v2112                                 |
|   \\  /    A nd           | Website:  www.openfoam.com                      |
|    \\/     M anipulation  |                                                 |
\*---------------------------------------------------------------------------*/
FoamFile
{
    version     2.0;
    format      ascii;
    class       volScalarField;
    location    "0";
    object      moment.2.populationBalance;
}
// * * * * * * * * * * * * * * * * * * * * * * * * * * * * * * * * * * * * * //

dimensions      [0 -1 0 0 0 0 0];

internalField   nonuniform List<scalar> 
1000
(
0
0
0
0
0
0
0
0
2.47722999525e-17
1.31475608608e-15
3.19201015349e-14
4.48126048058e-13
4.12535080241e-12
2.73554135077e-11
1.39836628473e-10
5.7951450883e-10
2.02274656139e-09
6.12397614797e-09
1.6457275814e-08
3.99832003971e-08
8.91253656716e-08
1.84478562305e-07
3.58096878544e-07
6.57240570585e-07
1.14840596972e-06
1.92143037629e-06
3.09345535422e-06
4.81254469192e-06
7.26078257963e-06
1.06567173079e-05
1.52570602415e-05
2.13575941109e-05
2.92932852005e-05
3.94376284996e-05
5.22012821799e-05
6.80300676251e-05
8.74024240889e-05
0.0001108264137
0.000138836374015
0.000171989312706
0.000210861133363
0.00025604277365
0.00030813632808
0.000367751218091
0.000435500462367
0.000511997090973
0.000597850737988
0.000693664439221
0.000800031654274
0.000917533525812
0.00104673638335
0.00118818949417
0.00134242305995
0.00150994645474
0.0016912466969
0.0018867871462
0.00209700641515
0.00232231748317
0.00256310700091
0.00281973477211
0.00309253339988
0.00338180808454
0.00368783656023
0.00401086915783
0.00435112898234
0.0047088121931
0.00508408837595
0.00547710099708
0.00588796792864
0.00631678203719
0.00676361182633
0.00722850212563
0.00771147481858
0.00821252960273
0.00873164477588
0.00926877804259
0.00982386733579
0.0103968316489
0.0109875718738
0.0115959716417
0.0122218981619
0.012865203057
0.0135257231905
0.0142032814854
0.0148976877302
0.0156087393722
0.0163362222948
0.0170799115785
0.0178395722438
0.018614959975
0.0194058218245
0.0202118968962
0.0210329170084
0.0218686073344
0.0227186870224
0.0235828697923
0.0244608645116
0.0253523757482
0.0262571043021
0.0271747477151
0.0281050007583
0.0290475558991
0.0300021037466
0.0309683334768
0.0319459332371
0.0329345905313
0.0339339925849
0.0349438266917
0.0359637805419
0.0369935425326
0.0380328020597
0.0390812497947
0.0401385779436
0.041204480491
0.042278653428
0.0433607949663
0.0444506057374
0.0455477889781
0.0466520507035
0.0477630998664
0.0488806485053
0.0500044118801
0.0511341085975
0.0522694607247
0.0534101938937
0.0545560373954
0.0557067242644
0.0568619913551
0.0580215794094
0.0591852331159
0.0603527011621
0.0615237362786
0.0626980952774
0.0638755390824
0.0650558327548
0.0662387455122
0.0674240507423
0.0686115260108
0.0698009530657
0.0709921178355
0.0721848104241
0.0733788251011
0.0745739602886
0.0757700185439
0.0769668065396
0.0781641350399
0.0793618188745
0.0805596769094
0.0817575320153
0.0829552110341
0.0841525447423
0.0853493678138
0.0865455187793
0.0877408399856
0.0889351775522
0.0901283813268
0.0913203048403
0.0925108052597
0.0936997433404
0.0948869833778
0.0960723931579
0.097255843907
0.0984372102415
0.0996163701161
0.100793204773
0.10196759869
0.103139439526
0.104308618074
0.105475028203
0.106638566807
0.107799133756
0.108956631838
0.110110966711
0.111262046847
0.112409783485
0.113554090573
0.114694884722
0.11583208515
0.116965613635
0.118095394462
0.119221354373
0.12034342252
0.12146153041
0.122575611863
0.123685602957
0.124791441986
0.125893069408
0.1269904278
0.128083461813
0.129172118124
0.130256345391
0.131336094212
0.132411317073
0.133481968315
0.134548004081
0.13560938228
0.136666062544
0.137718006187
0.13876517616
0.13980753702
0.140845054882
0.141877697384
0.14290543365
0.143928234251
0.144946071165
0.145958917747
0.146966748688
0.147969539982
0.14896726889
0.149959913906
0.150947454726
0.151929872212
0.152907148359
0.153879266265
0.154846210101
0.155807965077
0.156764517411
0.157715854303
0.158661963903
0.159602835282
0.160538458405
0.161468824102
0.16239392404
0.163313750698
0.16422829734
0.165137557986
0.16604152739
0.166940201014
0.167833575001
0.168721646153
0.169604411907
0.170481870309
0.171354019993
0.172220860158
0.173082390546
0.173938611416
0.174789523527
0.175635128117
0.176475426875
0.177310421928
0.178140115819
0.178964511481
0.179783612225
0.180597421717
0.181405943956
0.182209183261
0.183007144248
0.183799831812
0.184587251109
0.185369407541
0.186146306733
0.18691795452
0.187684356929
0.188445520157
0.189201450562
0.189952154642
0.190697639017
0.191437910416
0.192172975661
0.192902841648
0.193627515332
0.194347003715
0.195061313827
0.195770452711
0.196474427408
0.197173244943
0.19786691231
0.198555436456
0.199238824267
0.199917082553
0.200590218033
0.201258237324
0.201921146921
0.202578953188
0.20323166234
0.203879280431
0.204521813341
0.205159266757
0.205791646167
0.206418956837
0.207041203805
0.207658391863
0.208270525545
0.208877609109
0.209479646532
0.210076641487
0.210668597334
0.211255517108
0.2118374035
0.212414258847
0.21298608512
0.213552883904
0.214114656391
0.214671403363
0.215223125179
0.215769821761
0.21631149258
0.216848136644
0.217379752481
0.217906338129
0.218427891119
0.218944408464
0.219455886642
0.219962321585
0.220463708664
0.220960042674
0.221451317822
0.221937527711
0.222418665328
0.22289472303
0.223365692527
0.223831564871
0.224292330442
0.224747978933
0.225198499333
0.22564387992
0.226084108242
0.226519171102
0.226949054547
0.227373743855
0.227793223518
0.228207477227
0.228616487866
0.229020237487
0.229418707307
0.229811877689
0.230199728126
0.230582237236
0.230959382742
0.23133114146
0.231697489289
0.232058401196
0.232413851205
0.232763812384
0.233108256833
0.233447155673
0.233780479035
0.234108196048
0.23443027483
0.234746682475
0.235057385048
0.23536234757
0.235661534014
0.235954907294
0.23624242926
0.236524060687
0.236799761273
0.237069489629
0.23733320328
0.237590858654
0.237842411085
0.238087814805
0.238327022949
0.238559987549
0.23878665954
0.239006988758
0.239220923943
0.23942841275
0.239629401747
0.239823836427
0.240011661217
0.240192819486
0.240367253562
0.240534904742
0.240695713311
0.240849618556
0.240996558795
0.241136471391
0.241269292779
0.241394958499
0.241513403218
0.241624560767
0.24172836418
0.241824745725
0.24191363695
0.241994968729
0.242068671308
0.242134674358
0.24219290703
0.242243298016
0.242285775609
0.242320267775
0.242346702219
0.242365006468
0.242375107948
0.24237693407
0.24237041232
0.242355470359
0.242332036118
0.242300037911
0.242259404542
0.242210065425
0.242151950711
0.242084991414
0.242009119548
0.241924268275
0.241830372046
0.241727366765
0.24161518995
0.241493780901
0.241363080879
0.24122303329
0.241073583878
0.24091468092
0.240746275439
0.240568321411
0.240380775989
0.240183599734
0.239976756843
0.239760215401
0.239533947622
0.239297930114
0.239052144133
0.23879657586
0.238531216671
0.23825606342
0.237971118724
0.237676391253
0.237371896024
0.237057654699
0.236733695882
0.236400055421
0.236056776709
0.235703910984
0.235341517626
0.234969664454
0.23458842801
0.234197893849
0.233798156804
0.233389321257
0.232971501383
0.232544821385
0.232109415713
0.231665429256
0.231213017512
0.230752346732
0.230283594033
0.229806947472
0.229322606085
0.228830779881
0.228331689789
0.227825567551
0.227312655561
0.226793206634
0.226267483719
0.225735759531
0.225198316105
0.224655444274
0.224107443057
0.223554618948
0.222997285127
0.222435760552
0.221870368971
0.221301437817
0.220729297011
0.220154277671
0.219576710714
0.218996925389
0.218415247718
0.217831998892
0.217247493598
0.216662038345
0.21607592977
0.21548945298
0.214902879953
0.214316468036
0.213730458576
0.213145075734
0.212560525509
0.211976995033
0.211394652152
0.210813645345
0.210234103985
0.209656138958
0.20907984364
0.208505295191
0.207932556132
0.207361676144
0.206792693992
0.206225639496
0.205660535445
0.205097399357
0.204536245018
0.203977083738
0.203419925308
0.202864778677
0.202311652384
0.201760554802
0.201211494263
0.200664479111
0.200119517721
0.199576618504
0.199035789907
0.198497040417
0.19796037856
0.197425812902
0.196893352049
0.196363004649
0.195834779389
0.195308685004
0.194784730266
0.194262923995
0.193743275055
0.193225792354
0.192710484846
0.192197361534
0.191686431466
0.191177703738
0.190671187496
0.190166891935
0.1896648263
0.189164999886
0.188667422041
0.188172102156
0.187679049655
0.187188273948
0.186699784315
0.186213589696
0.185729698305
0.185248117051
0.184768850712
0.184291900875
0.183817264666
0.183344933319
0.182874890657
0.182407111581
0.181941560639
0.181478190764
0.181016942237
0.18055774193
0.180100502852
0.179645124007
0.17919149057
0.178739474341
0.178288934478
0.177839718439
0.177391663125
0.176944596162
0.176498337297
0.176052699854
0.175607492228
0.175162519386
0.174717584336
0.174272489555
0.173827038349
0.173381036138
0.172934291645
0.172486617993
0.172037833694
0.171587763542
0.171136239395
0.170683100852
0.170228195839
0.16977138109
0.169312522541
0.16885149564
0.168388185568
0.167922487398
0.167454306174
0.166983556937
0.166510164688
0.166034064302
0.165555200401
0.165073527179
0.164589008201
0.164101616164
0.163611332637
0.163118147775
0.162622060019
0.162123075779
0.161621209104
0.161116481345
0.160608920813
0.160098562428
0.159585447373
0.159069622742
0.158551141192
0.158030060601
0.157506443725
0.156980357864
0.156451874534
0.155921069148
0.155388020699
0.154852811458
0.15431552668
0.153776254318
0.153235084745
0.152692110491
0.152147425986
0.151601127315
0.151053311983
0.15050407869
0.149953527117
0.14940175772
0.148848871539
0.148294970009
0.147740154789
0.147184527595
0.146628190042
0.1460712435
0.145513788955
0.144955926874
0.144397757092
0.143839378689
0.143280889892
0.142722387968
0.14216396914
0.141605728496
0.141047759916
0.140490155994
0.139933007976
0.1393764057
0.138820437538
0.138265190349
0.137710749432
0.137157198488
0.136604619583
0.136053093118
0.1355026978
0.13495351062
0.134405606831
0.133859059933
0.13331394166
0.132770321968
0.132228269028
0.131687849221
0.131149127136
0.130612165567
0.130077025519
0.129543766208
0.12901244507
0.128483117763
0.127955838184
0.127430658471
0.12690762902
0.126386798497
0.12586821385
0.125351920326
0.124837961485
0.124326379222
0.123817213775
0.123310503754
0.12280628615
0.122304596362
0.121805468212
0.121308933966
0.120815024357
0.1203237686
0.119835194418
0.119349328063
0.118866194333
0.118385816596
0.11790821681
0.117433415547
0.116961432009
0.116492284055
0.116025988215
0.115562559717
0.115102012506
0.11464435926
0.114189611416
0.113737779186
0.113288871581
0.112842896423
0.112399860373
0.111959768942
0.111522626514
0.111088436362
0.110657200669
0.110228920541
0.109803596026
0.109381226132
0.108961808842
0.10854534113
0.108131818976
0.107721237383
0.107313590391
0.106908871091
0.10650707164
0.106108183271
0.105712196315
0.105319100203
0.104928883486
0.104541533846
0.104157038105
0.103775382239
0.103396551389
0.10302052987
0.102647301182
0.102276848021
0.101909152288
0.101544195097
0.101181956787
0.100822416928
0.100465554328
0.100111347046
0.0997597723939
0.0994108069486
0.0990644265558
0.0987206063382
0.0983793207016
0.0980405433412
0.0977042472471
0.0973704047108
0.0970389873297
0.0967099660127
0.0963833109851
0.0960589917932
0.0957369773087
0.0954172357333
0.0950997346021
0.0947844407883
0.0944713205062
0.0941603393149
0.0938514621219
0.093544653186
0.0932398761204
0.0929370938957
0.0926362688426
0.0923373626547
0.092040336391
0.0917451504782
0.0914517647137
0.091160138267
0.0908702296828
0.0905819968829
0.0902953971681
0.0900103872211
0.0897269231079
0.0894449602801
0.0891644535775
0.0888853572298
0.0886076248588
0.0883312094811
0.0880560635097
0.0877821387571
0.0875093864373
0.0872377571684
0.0869672009755
0.0866976672931
0.0864291049684
0.0861614622642
0.0858946868618
0.0856287258653
0.085363525804
0.0850990326372
0.0848351917577
0.0845719479961
0.0843092456257
0.0840470283664
0.0837852393907
0.0835238213284
0.0832627162725
0.083001865785
0.0827412109035
0.0824806921474
0.0822202495254
0.0819598225425
0.0816993502083
0.0814387710447
0.081178023095
0.080917043933
0.0806557706723
0.0803941399766
0.0801320880705
0.0798695507503
0.0796064633958
0.0793427609828
0.0790783780952
0.0788132489393
0.0785473073571
0.0782804868414
0.0780127205509
0.0777439413262
0.0774740817065
0.077203073947
0.0769308500368
0.0766573417181
0.0763824805054
0.0761061977061
0.075828424442
0.0755490916704
0.0752681302081
0.0749854707541
0.0747010439149
0.0744147802296
0.0741266101963
0.0738364642998
0.0735442730393
0.0732499669582
0.072953476674
0.0726547329099
0.0723536665265
0.0720502085559
0.0717442902353
0.0714358430431
0.0711247987352
0.0708110893826
0.0704946474104
0.0701754056379
0.0698532973191
0.0695282561857
0.0692002164903
0.0688691130511
0.068534881298
0.0681974573194
0.0678567779111
0.0675127806257
0.0671654038235
0.0668145867249
0.0664602694639
0.066102393143
0.0657408998891
0.0653757329111
0.065006836559
0.0646341563835
0.0642576391977
0.0638772331399
0.0634928877379
0.0631045539739
0.0627121843521
0.0623157329661
0.0619151555687
0.0615104096427
0.0611014544731
0.06068825122
0.0602707629939
0.0598489549311
0.0594227942715
0.0589922504365
0.0585572951089
0.058117902314
0.0576740485012
0.0572257126273
0.056772876241
0.0563155235678
0.0558536415967
0.0553872201672
0.0549162520578
0.0544407330751
0.0539606621435
0.053476041396
0.0529868762657
0.0524931755778
0.0519949516418
0.0514922203451
0.0509850012459
0.050473317667
0.0499571967897
0.0494366697479
0.0489117717217
0.0483825420313
0.0478490242304
0.0473112661995
0.0467693202381
0.0462232431565
0.045673096367
0.0451189459737
0.0445608628607
0.0439989227803
0.0434332064376
0.0428637995753
0.042290793055
0.0417142829369
0.0411343705567
0.0405511626005
0.0399647711752
0.0393753138772
0.0387829138565
0.0381876998772
0.0375898063737
0.0369893735025
0.0363865471887
0.035781479168
0.0351743270219
0.0345652542078
0.0339544300824
0.0333420299177
0.0327282349103
0.0321132321826
0.0314972147757
0.0308803816334
0.0302629375773
0.0296450932713
0.0290270651769
0.0284090754961
0.0277913521041
0.027174128469
0.0265576435592
0.0259421417371
0.0253278726392
0.0247150910411
0.0241040567074
0.023495034226
0.0228882928245
0.0222841061708
0.0216827521543
0.021084512649
0.0204896732568
0.0198985230311
0.0193113541785
0.0187284617403
0.0181501432506
0.0175766983718
0.017008428507
0.0164456363878
0.0158886256372
0.0153377003078
0.0147931643939
0.0142553213174
0.0137244733872
0.0132009212319
0.0126849632049
0.0121768947631
0.0116770078179
0.0111855900588
0.010702924251
0.010229287506
0.00976495052579
0.00931017682331
0.00886522191711
0.00843033250396
0.00800574560946
0.00759168771873
0.00718837388922
0.00679600684773
0.00641477607457
0.00604485687764
0.00568640946005
0.0053395779851
0.005004489643
0.00468125372421
0.00436996070483
0.00407068134998
0.0037834658419
0.00350834293989
0.00324531918003
0.00299437812335
0.00275547966172
0.00252855939143
0.00231352806535
0.002110271135
0.00191864839479
0.00173849374108
0.00156961505951
0.00141179425449
0.00126478743477
0.00112832526972
0.00100211353048
0.000885833829961
0.000779144575224
0.000681682144502
0.000593062299813
0.000512881844086
0.000440720529059
0.000376143216911
0.000318702294475
0.000267940333918
0.000223392987922
0.000184592100591
0.000151069007596
0.000122357990496
9.79998408171e-05
7.75454797078e-05
6.05595689203e-05
4.66240391819e-05
3.53414531652e-05
2.63381130789e-05
1.92668182736e-05
1.38091772255e-05
9.67738194759e-06
6.61536235954e-06
4.39925437949e-06
2.83713905508e-06
1.76804095471e-06
1.06021145037e-06
6.0876451403e-07
3.32776006404e-07
1.71997654985e-07
8.33684631968e-08
3.75232660195e-08
1.54953877237e-08
5.78493232564e-09
1.9170148865e-09
5.51018952183e-10
1.33395267821e-10
2.61805716377e-11
3.96106759584e-12
4.31684357008e-13
3.08492370285e-14
1.27479027409e-15
2.40975382663e-17
0
0
0
0
0
0
0
0
)
;

boundaryField
{
    left
    {
        type            cyclic;
    }
    right
    {
        type            cyclic;
    }
    frontAndBack
    {
        type            empty;
    }
}


// ************************************************************************* //
