/*--------------------------------*- C++ -*----------------------------------*\
| =========                 |                                                 |
| \\      /  F ield         | OpenFOAM: The Open Source CFD Toolbox           |
|  \\    /   O peration     | Version:  v2112                                 |
|   \\  /    A nd           | Website:  www.openfoam.com                      |
|    \\/     M anipulation  |                                                 |
\*---------------------------------------------------------------------------*/
FoamFile
{
    version     2.0;
    format      ascii;
    class       volScalarField;
    location    "0";
    object      moment.3.populationBalance;
}
// * * * * * * * * * * * * * * * * * * * * * * * * * * * * * * * * * * * * * //

dimensions      [0 0 0 0 0 0 0];

internalField   nonuniform List<scalar> 
1000
(
0
0
0
0
0
0
0
0
1.82309916976e-17
9.67947454278e-16
2.35087506636e-14
3.30156797052e-13
3.04040747723e-12
2.01679213368e-11
1.03129248305e-10
4.27527829947e-10
1.49271481825e-09
4.52064388026e-09
1.21521279983e-08
2.95321919797e-08
6.58475115467e-08
1.36332702497e-07
2.64707937568e-07
4.85958619923e-07
8.49327298406e-07
1.42136376674e-06
2.2888726506e-06
3.56160701299e-06
5.37457796547e-06
7.88987956685e-06
1.12979611508e-05
1.58183120482e-05
2.16995537838e-05
2.92189605156e-05
3.86814488774e-05
5.0418093292e-05
6.47842325288e-05
8.21572383855e-05
0.000102934018629
0.000127528324546
0.000156367929378
0.000189891738323
0.00022854688414
0.000272785855361
0.000323063696911
0.00037983531599
0.000443552919464
0.000514663602993
0.000593607106654
0.000680813747055
0.000776702531741
0.000881679458178
0.000996135996637
0.00112044775386
0.00125497331248
0.00140005323955
0.00155600925652
0.00172314356209
0.00190173829866
0.00209205515311
0.0022943350822
0.00250879815282
0.0027356434879
0.00297504930848
0.00322717306303
0.00349215163546
0.00377010162363
0.00406111968047
0.00436528291049
0.00468264931473
0.00501325827769
0.00535713109038
0.0057142715037
0.00608466630723
0.00646828592858
0.00686508504897
0.00727500323115
0.00769796555589
0.00813388326387
0.00858265439999
0.00904416445732
0.00951828701837
0.0100048843915
0.0105038082405
0.0110149002059
0.0115379925157
0.0120729085858
0.0126194636069
0.0131774651191
0.0137467135713
0.0143270028664
0.0149181208908
0.0155198500279
0.0161319676554
0.016754246626
0.0173864557317
0.0180283601509
0.0186797218789
0.0193403001415
0.0200098517919
0.0206881316913
0.0213748930726
0.0220698878882
0.0227728671423
0.0234835812066
0.0242017801214
0.0249272138818
0.0256596327085
0.0263987873051
0.0271444291009
0.0278963104808
0.0286541850011
0.0294178075938
0.0301869347572
0.0309613247359
0.0317407376883
0.0325249358434
0.0333136836466
0.0341067478957
0.0349038978665
0.0357049054287
0.0365095451534
0.0373175944111
0.0381288334614
0.0389430455349
0.0397600169075
0.0405795369667
0.0414013982714
0.0422253966052
0.0430513310227
0.0438790038901
0.0447082209202
0.0455387912014
0.0463705272222
0.0472032448901
0.0480367635463
0.0488709059758
0.0497054984133
0.0505403705455
0.0513753555092
0.0522102898863
0.0530450136954
0.0538793703802
0.0547132067955
0.0555463731898
0.0563787231857
0.0572101137587
0.0580404052122
0.058869461152
0.0596971484582
0.0605233372553
0.0613479008811
0.0621707158538
0.0629916618379
0.0638106216088
0.0646274810162
0.0654421289469
0.0662544572859
0.0670643608774
0.0678717374848
0.0686764877501
0.0694785151525
0.0702777259669
0.0710740292215
0.0718673366558
0.0726575626772
0.0734446243187
0.0742284411951
0.0750089354602
0.0757860317632
0.0765596572057
0.0773297412977
0.078096215915
0.0788590152558
0.0796180757977
0.0803733362547
0.0811247375349
0.081872222698
0.082615736913
0.0833552274164
0.0840906434711
0.0848219363247
0.0855490591688
0.0862719670988
0.0869906170734
0.0877049678754
0.088414980072
0.0891206159765
0.0898218396094
0.0905186166606
0.0912109144521
0.0918987019011
0.0925819494828
0.0932606291952
0.0939347145229
0.0946041804023
0.0952690031869
0.0959291606132
0.096584631767
0.0972353970504
0.0978814381493
0.0985227380008
0.099159280762
0.0997910517787
0.100418037555
0.101040225722
0.101657605009
0.102270165217
0.102877897183
0.103480792758
0.104078844778
0.104672047036
0.105260394252
0.105843882054
0.106422506945
0.106996266279
0.107565158242
0.108129181818
0.108688336771
0.109242623621
0.109792043617
0.110336598718
0.110876291568
0.111411125476
0.111941104392
0.112466232888
0.112986516135
0.113501959884
0.114012570443
0.114518354663
0.115019319912
0.115515474059
0.116006825457
0.116493382921
0.11697515571
0.117452153514
0.117924386431
0.118391864952
0.118854599947
0.119312602641
0.119765884607
0.120214457742
0.120658334258
0.121097526662
0.121532047741
0.12196191055
0.122387128395
0.122807714822
0.123223683596
0.123635048695
0.124041824291
0.124444024739
0.124841664564
0.125234758445
0.125623321206
0.126007367802
0.126386913305
0.126761972896
0.127132561847
0.127498695514
0.127860389325
0.128217658765
0.128570519368
0.128918986706
0.129263076376
0.12960280399
0.129938185165
0.13026923551
0.130595970621
0.130918406064
0.131236557369
0.131550440021
0.131860069445
0.132165461002
0.132466629975
0.132763591563
0.133056360869
0.13334495289
0.133629382512
0.133909664494
0.134185813468
0.134457843921
0.134725770192
0.134989606461
0.135249366739
0.135505064863
0.135756714485
0.136004329063
0.136247921852
0.1364875059
0.136723094034
0.136954698857
0.137182332733
0.137406007786
0.137625735889
0.137841528655
0.138053397428
0.138261353279
0.138465406995
0.138665569072
0.138861849709
0.139054258794
0.139242805906
0.139427500297
0.139608350893
0.13978536628
0.139958554702
0.140127924048
0.140293481848
0.140455235266
0.140613191089
0.140767355724
0.140917735188
0.141064335101
0.14120716068
0.141346216731
0.141481507643
0.141613037379
0.141740809471
0.141864827013
0.141985092653
0.142101608586
0.142214376552
0.142323397822
0.142428673198
0.142530203005
0.142627987082
0.142722024779
0.142812314953
0.142898855955
0.142981645633
0.143060681321
0.143135959835
0.143207477468
0.143275229989
0.14333921263
0.143399420088
0.143455846522
0.143508485544
0.143557330216
0.143602373052
0.143643606009
0.143681020488
0.14371460733
0.143744356813
0.143770258655
0.143792302006
0.143810475453
0.143824767018
0.143835164158
0.143841653764
0.143844222166
0.143842855132
0.143837537874
0.143828255047
0.143814990754
0.143797728553
0.143776451461
0.143751141959
0.143721782001
0.143688353021
0.143650835942
0.143609211185
0.143563458683
0.143513557887
0.143459487787
0.14340122692
0.143338753387
0.143272044872
0.143201078658
0.143125831647
0.143046280383
0.142962401071
0.142874169603
0.142781561587
0.142684552369
0.142583117066
0.142477230596
0.142366867714
0.142252003042
0.142132611112
0.142008666403
0.141880143381
0.141747016548
0.141609260485
0.141466849901
0.141319759688
0.141167964971
0.141011441168
0.140850164051
0.140684109804
0.140513255095
0.140337577139
0.140157053774
0.139971663534
0.139781385729
0.139586200525
0.139386089029
0.13918103338
0.138971016837
0.138756023878
0.138536040297
0.138311053305
0.13808105164
0.137846025672
0.137605967519
0.137360871163
0.137110732568
0.136855549808
0.136595323185
0.13633005537
0.136059751526
0.13578441945
0.135504069707
0.135218715775
0.134928374186
0.134633064669
0.134332810303
0.134027637658
0.133717576949
0.133402662183
0.133082931307
0.132758426361
0.13242919362
0.132095283741
0.131756751906
0.13141365796
0.131066066544
0.130714047226
0.130357674617
0.12999702849
0.129632193883
0.129263261189
0.128890326241
0.128513490378
0.128132860495
0.127748549081
0.127360674229
0.126969359633
0.126574734553
0.126176933764
0.125776097462
0.125372371155
0.124965905511
0.124556856168
0.124145383514
0.123731652417
0.123315831919
0.122898094875
0.122478617557
0.122057579193
0.12163516147
0.121211547971
0.120786923576
0.120361473796
0.119935384068
0.119508839003
0.119082021584
0.118655112337
0.118228288466
0.117801722967
0.117375583744
0.116950032711
0.116525224932
0.116101307786
0.115678420196
0.11525669193
0.114836243004
0.114417183207
0.113999611766
0.113583617174
0.113169277193
0.112756659045
0.112345819796
0.111936806918
0.111529659033
0.111124406793
0.110721073873
0.110319678036
0.109920232206
0.10952274551
0.109127224232
0.108733672644
0.108342093679
0.107952489453
0.107564861618
0.107179211599
0.106795540726
0.106413850295
0.106034141601
0.105656415946
0.105280674644
0.10490691902
0.104535150411
0.10416537017
0.103797579661
0.103431780264
0.103067973373
0.1027061604
0.102346342772
0.101988521932
0.101632699344
0.101278876487
0.100927054861
0.100577235985
0.100229421397
0.0998836126602
0.0995398113547
0.0991980190854
0.0988582374796
0.0985204681885
0.0981847128872
0.0978509732757
0.0975192510765
0.0971895480271
0.0968618658562
0.0965362062276
0.0962125706275
0.0958909601703
0.0955713752987
0.0952538153628
0.0949382780783
0.0946247588783
0.094313250185
0.0940037406423
0.0936962143512
0.0933906501525
0.0930870209969
0.0927852934344
0.0924854272477
0.0921873752414
0.0918910831945
0.0915964899688
0.0913035277668
0.0910121225205
0.0907221943949
0.0904336583834
0.0901464249769
0.0898604008823
0.089575489774
0.0892915930587
0.0890086106389
0.0887264416604
0.0884449852335
0.0881641411186
0.0878838103685
0.087603895923
0.0873243031519
0.0870449403446
0.0867657191446
0.0864865549308
0.0862073671448
0.0859280795671
0.0856486205439
0.0853689231678
0.0850889254145
0.0848085702387
0.084527805633
0.0842465846527
0.0839648654089
0.0836826110344
0.083399789624
0.0831163741529
0.0828323423761
0.0825476767103
0.0822623641018
0.0819763958817
0.0816897676118
0.081402478921
0.0811145333363
0.0808259381077
0.0805367040307
0.0802468452656
0.0799563791559
0.0796653260469
0.0793737091051
0.0790815541384
0.0787888894202
0.0784957455146
0.0782021551065
0.0779081528353
0.077613775132
0.0773190600625
0.0770240471745
0.0767287773499
0.0764332926626
0.0761376362418
0.07584185214
0.0755459852074
0.0752500809714
0.0749541855212
0.0746583453989
0.0743626074947
0.0740670189486
0.0737716270564
0.0734764791814
0.0731816226711
0.0728871047782
0.0725929725874
0.0722992729454
0.072006052397
0.0717133571238
0.0714212328889
0.0711297249836
0.0708388781801
0.0705487366858
0.0702593441032
0.0699707433911
0.0696829768311
0.0693960859958
0.0691101117203
0.0688250940768
0.0685410723518
0.0682580850253
0.0679761697535
0.0676953633525
0.067415701785
0.0671372201489
0.0668599526678
0.0665839326827
0.0663091926464
0.066035764119
0.0657636777646
0.0654929633495
0.0652236497426
0.0649557649154
0.0646893359444
0.0644243890142
0.064160949421
0.0638990415781
0.0636386890208
0.0633799144135
0.0631227395562
0.0628671853924
0.0626132720176
0.0623610186876
0.062110443828
0.0618615650436
0.0616143991285
0.0613689620761
0.0611252690901
0.0608833345946
0.0606431722457
0.0604047949422
0.0601682148365
0.0599334433469
0.0597004911679
0.0594693682821
0.0592400839717
0.0590126468297
0.0587870647712
0.058563345045
0.0583414942444
0.0581215183187
0.0579034225841
0.0576872117345
0.0574728898523
0.0572604604191
0.0570499263261
0.0568412898842
0.0566345528343
0.056429716357
0.0562267810824
0.0560257470996
0.0558266139657
0.0556293807151
0.0554340458683
0.0552406074402
0.0550490629486
0.0548594094223
0.0546716434091
0.0544857609829
0.0543017577516
0.0541196288638
0.0539393690159
0.0537609724587
0.0535844330035
0.0534097440283
0.0532368984837
0.0530658888986
0.0528967073852
0.0527293456443
0.0525637949702
0.0524000462551
0.0522380899934
0.0520779162861
0.0519195148444
0.0517628749933
0.0516079856751
0.0514548354525
0.0513034125115
0.051153704664
0.0510056993504
0.0508593836415
0.050714744241
0.050571767487
0.0504304393535
0.050290745452
0.0501526710324
0.0500162009842
0.0498813198371
0.0497480117615
0.0496162605693
0.0494860497135
0.0493573622886
0.0492301810303
0.0491044883152
0.0489802661602
0.0488574962219
0.0487361597958
0.0486162378152
0.0484977108502
0.0483805591064
0.0482647624233
0.0481503002728
0.0480371517578
0.0479252956101
0.0478147101885
0.0477053734769
0.0475972630822
0.0474903562316
0.0473846297711
0.0472800601621
0.0471766234799
0.0470742954101
0.046973051247
0.04687286589
0.0467737138413
0.0466755692032
0.0465784056747
0.0464821965493
0.0463869147116
0.0462925326346
0.0461990223768
0.046106355579
0.0460145034617
0.0459234368219
0.0458331260306
0.0457435410293
0.045654651328
0.0455664260017
0.0454788336881
0.0453918425849
0.0453054204471
0.0452195345848
0.0451341518605
0.045049238687
0.0449647610255
0.044880684383
0.0447969738112
0.0447135939039
0.0446305087964
0.0445476821634
0.0444650772181
0.0443826567113
0.0443003829306
0.0442182176996
0.044136122378
0.0440540578613
0.0439719845813
0.0438898625061
0.0438076511416
0.0437253095318
0.0436427962612
0.0435600694556
0.0434770867849
0.0433938054656
0.0433101822632
0.0432261734958
0.0431417350381
0.0430568223248
0.0429713903561
0.042885393702
0.0427987865083
0.0427115225024
0.042623555
0.0425348369124
0.0424453207538
0.0423549586495
0.0422637023453
0.0421715032163
0.0420783122774
0.0419840801938
0.0418887572925
0.0417922935743
0.0416946387265
0.0415957421368
0.0414955529071
0.0413940198687
0.0412910915982
0.0411867164339
0.0410808424934
0.0409734176919
0.0408643897612
0.0407537062698
0.0406413146438
0.0405271621891
0.0404111961134
0.0402933635509
0.0401736115864
0.0400518872813
0.0399281377003
0.0398023099395
0.0396743511548
0.039544208592
0.0394118296183
0.0392771617537
0.0391401527049
0.0390007503997
0.038858903022
0.0387145590495
0.0385676672908
0.0384181769254
0.0382660375434
0.0381111991877
0.0379536123966
0.0377932282481
0.0376299984052
0.0374638751629
0.0372948114958
0.0371227611079
0.0369476784828
0.0367695189359
0.0365882386676
0.0364037948176
0.0362161455212
0.0360252499661
0.0358310684513
0.0356335624465
0.0354326946536
0.035228429069
0.0350207310469
0.0348095673651
0.0345949062903
0.0343767176466
0.0341549728831
0.0339296451446
0.0337007093423
0.0334681422261
0.033231922458
0.0329920306861
0.0327484496207
0.0325011641099
0.0322501612177
0.0319954303016
0.0317369630922
0.0314747537728
0.0312087990601
0.0309390982851
0.0306656534753
0.0303884694367
0.0301075538367
0.0298229172867
0.0295345734257
0.0292425390033
0.0289468339631
0.0286474815258
0.0283445082722
0.0280379442257
0.0277278229341
0.0274141815511
0.027097060917
0.0267765056375
0.0264525641627
0.0261252888636
0.0257947361079
0.0254609663329
0.0251240441179
0.0247840382531
0.0244410218069
0.0240950721898
0.0237462712161
0.0233947051618
0.023040464819
0.0226836455469
0.0223243473185
0.0219626747625
0.0215987372008
0.0212326486806
0.0208645280014
0.0204944987358
0.0201226892437
0.0197492326806
0.0193742669984
0.018997934938
0.0186203840154
0.0182417664977
0.0178622393716
0.0174819643012
0.017101107577
0.0167198400535
0.0163383370767
0.0159567783992
0.015575348084
0.0151942343955
0.0148136296768
0.0144337302138
0.0140547360852
0.0136768509965
0.0133002820999
0.0129252397971
0.012551937526
0.0121805915297
0.0118114206087
0.0114446458532
0.0110804903587
0.0107191789198
0.0103609377067
0.0100059939192
0.00965457542174
0.00930691035651
0.00896322673538
0.00862375201045
0.00828871262267
0.0079583335287
0.0076328377058
0.00731244563494
0.0069973747624
0.00668783893988
0.00638404784394
0.00608620637511
0.00579451403744
0.00550916429967
0.00523034393881
0.00495823236789
0.00469300094909
0.00443481229447
0.0041838195562
0.00394016570894
0.00370398282694
0.00347539135932
0.0032544994067
0.00304140200344
0.00283618040971
0.00263890141816
0.00244961668076
0.00226836206135
0.00209515702047
0.0019300040392
0.00177288808968
0.00162377615998
0.00148261684227
0.00134933999297
0.00122385647485
0.00110605799076
0.000995817019708
0.00089298686583
0.000797401831248
0.000708877523686
0.00062721130964
0.000552182923443
0.000483555241921
0.000421075233279
0.000364475087494
0.000313473533571
0.000267777346688
0.000227083045257
0.00019107877437
0.000159446367814
0.000131863575896
0.00010800644065
8.75517937025e-05
7.01798451904e-05
5.55768248445e-05
4.34376289113e-05
3.34684192933e-05
2.53891146067e-05
1.89357073344e-05
1.38623375527e-05
9.94305260692e-06
6.97318441681e-06
4.77028262691e-06
3.17455327914e-06
2.04876953826e-06
1.27764328367e-06
7.66673521522e-07
4.40518195022e-07
2.40967763753e-07
1.24628612337e-07
6.04478969266e-08
2.72245101792e-08
1.12496189296e-08
4.20247800822e-09
1.3934787151e-09
4.0077900779e-10
9.70819115513e-11
1.90648056533e-11
2.88613587065e-12
3.14715400353e-13
2.25029360028e-14
9.30405965661e-16
1.75971092265e-17
0
0
0
0
0
0
0
0
)
;

boundaryField
{
    left
    {
        type            cyclic;
    }
    right
    {
        type            cyclic;
    }
    frontAndBack
    {
        type            empty;
    }
}


// ************************************************************************* //
