/*--------------------------------*- C++ -*----------------------------------*\
| =========                 |                                                 |
| \\      /  F ield         | OpenFOAM: The Open Source CFD Toolbox           |
|  \\    /   O peration     | Version:  v2112                                 |
|   \\  /    A nd           | Website:  www.openfoam.com                      |
|    \\/     M anipulation  |                                                 |
\*---------------------------------------------------------------------------*/
FoamFile
{
    version     2.0;
    format      ascii;
    class       volScalarField;
    location    "0";
    object      moment.1.populationBalance;
}
// * * * * * * * * * * * * * * * * * * * * * * * * * * * * * * * * * * * * * //

dimensions      [0 -2 0 0 0 0 0];

internalField   nonuniform List<scalar> 
1000
(
0
0
0
0
0
0
0
0
3.56012946353e-17
1.88846446562e-15
4.58244103238e-14
6.42993550132e-13
5.91624184395e-12
3.92113421861e-11
2.00344548261e-10
8.2987716271e-10
2.89526704223e-09
8.76159199384e-09
2.35350199679e-08
5.71539116262e-08
1.27346258397e-07
2.63482569818e-07
5.11248781847e-07
9.37964732344e-07
1.6382968372e-06
2.74006840688e-06
4.40985983122e-06
6.85811005108e-06
1.03434731608e-05
1.51762410898e-05
2.17207068481e-05
3.03964058801e-05
4.16782305861e-05
5.60954618089e-05
7.42297994774e-05
9.6712502356e-05
0.0001242207646
0.000157473465764
0.000197226432531
0.000244267346339
0.000299410422697
0.000363490976766
0.000437359976769
0.000521878673013
0.000617913376433
0.000726330447118
0.00084799154074
0.000983749149248
0.00113444246193
0.00130089356385
0.00148390398102
0.00168425157476
0.00190268778273
0.00213993519917
0.00239668548358
0.00267359758447
0.00297129626245
0.00329037089582
0.00363137455066
0.00399482329705
0.00438119575285
0.00479093283662
0.00522443771151
0.00568207590265
0.00616417557101
0.00667102792772
0.00720288777329
0.00775997414743
0.00834247107579
0.00895052840083
0.00958426268518
0.0102437581763
0.0109290678224
0.0116402143305
0.0123771912577
0.013139964128
0.0139284715681
0.0147426264548
0.0155823170691
0.0164474082506
0.0173377425496
0.0182531413698
0.0191934061009
0.0201583192353
0.021147645468
0.0221611327756
0.0231985134738
0.0242595052494
0.0253438121685
0.0264511256555
0.027581125446
0.028733480509
0.0299078499411
0.0311038838291
0.0323212240839
0.033559505242
0.0348183552382
0.0360973961467
0.037396244892
0.0387145139305
0.0400518119014
0.0414077442493
0.0427819138171
0.0441739214118
0.0455833663417
0.0470098469268
0.0484529609836
0.049912306283
0.0513874809844
0.0528780840449
0.0543837156052
0.0559039773527
0.0574384728628
0.0589868079186
0.0605485908104
0.0621234326153
0.0637109474578
0.0653107527523
0.0669224694277
0.0685457221354
0.0701801394411
0.0718253540009
0.0734810027234
0.0751467269164
0.0768221724214
0.078506989734
0.0802008341134
0.0819033656788
0.083614249496
0.0853331556523
0.0870597593223
0.0887937408237
0.0905347856643
0.0922825845805
0.0940368335676
0.0957972339025
0.0975634921598
0.0993353202203
0.101112435274
0.102894559816
0.104681421639
0.106472753816
0.108268294687
0.110067787829
0.11187098203
0.113677631261
0.115487494634
0.117300336369
0.119115925748
0.120934037071
0.122754449608
0.124576947548
0.126401319951
0.128227360685
0.13005486838
0.131883646359
0.133713502587
0.135544249606
0.137375704472
0.139207688696
0.141040028175
0.142872553128
0.144705098034
0.146537501561
0.148369606502
0.150201259705
0.152032312012
0.153862618184
0.155692036837
0.157520430374
0.15934766492
0.161173610247
0.162998139716
0.164821130204
0.166642462037
0.168462018928
0.170279687906
0.172095359255
0.173908926446
0.17572028607
0.177529337782
0.179335984227
0.181140130987
0.182941686512
0.18474056206
0.186536671637
0.188329931937
0.190120262281
0.191907584559
0.19369182317
0.195472904969
0.197250759205
0.199025317467
0.200796513632
0.202564283805
0.204328566269
0.206089301431
0.20784643177
0.209599901785
0.211349657944
0.213095648637
0.214837824123
0.216576136484
0.218310539575
0.220040988979
0.221767441962
0.223489857425
0.225208195857
0.226922419298
0.228632491289
0.230338376833
0.232040042349
0.233737455636
0.235430585828
0.237119403357
0.23880387991
0.240483988392
0.242159702889
0.24383099863
0.245497851947
0.247160240241
0.248818141949
0.2504715365
0.252120404291
0.253764726644
0.255404485777
0.257039664769
0.258670247528
0.260296218757
0.261917563926
0.263534269236
0.26514632159
0.266753708564
0.268356418374
0.26995443985
0.271547762404
0.273136375999
0.274720271126
0.276299438772
0.277873870393
0.279443557886
0.281008493563
0.282568670123
0.284124080625
0.285674718463
0.287220577339
0.288761651238
0.2902979344
0.291829421298
0.29335610661
0.294877985197
0.296395052074
0.29790730239
0.299414731401
0.300917334447
0.302415106924
0.303908044267
0.30539614192
0.306879395317
0.308357799853
0.309831350865
0.311300043607
0.312763873227
0.314222834744
0.315676923021
0.317126132747
0.318570458413
0.320009894284
0.321444434382
0.322874072459
0.324298801974
0.325718616071
0.327133507556
0.328543468872
0.329948492078
0.331348568823
0.332743690323
0.334133847339
0.335519030153
0.336899228542
0.338274431758
0.339644628498
0.341009806887
0.342369954448
0.343725058082
0.34507510404
0.3464200779
0.347759964539
0.349094748116
0.350424412036
0.351748938934
0.353068310642
0.354382508169
0.35569151167
0.356995300424
0.358293852807
0.359587146259
0.360875157268
0.362157861333
0.363435232942
0.364707245543
0.365973871515
0.367235082144
0.368490847587
0.369741136851
0.370985917763
0.372225156934
0.37345881974
0.374686870284
0.375909271371
0.377125984476
0.378336969714
0.379542185809
0.380741590066
0.381935138335
0.383122784986
0.384304482872
0.385480183302
0.386649836005
0.387813389103
0.388970789073
0.390121980722
0.391266907148
0.392405509713
0.393537728005
0.394663499813
0.395782761085
0.396895445905
0.398001486455
0.399100812982
0.400193353769
0.401279035101
0.402357781232
0.403429514355
0.404494154569
0.40555161985
0.406601826017
0.407644686701
0.408680113319
0.409708015041
0.410728298763
0.411740869074
0.412745628235
0.413742476148
0.41473131033
0.415712025887
0.416684515496
0.417648669371
0.418604375254
0.419551518383
0.420489981481
0.421419644734
0.422340385779
0.423252079684
0.424154598944
0.425047813464
0.425931590553
0.426805794921
0.427670288675
0.428524931314
0.42936957974
0.430204088256
0.431028308578
0.431842089848
0.432645278649
0.433437719023
0.434219252496
0.434989718109
0.435748952443
0.436496789664
0.437233061562
0.437957597598
0.438670224957
0.439370768611
0.440059051378
0.440734893998
0.441398115211
0.442048531842
0.442685958892
0.443310209642
0.443921095761
0.44451842742
0.445102013424
0.445671661343
0.446227177658
0.446768367916
0.447295036897
0.447806988789
0.448304027373
0.448785956226
0.44925257893
0.449703699295
0.450139121595
0.450558650819
0.450962092931
0.451349255152
0.451719946245
0.452073976826
0.452411159683
0.452731310114
0.453034246278
0.453319789565
0.45358776498
0.453838001545
0.454070332716
0.454284596821
0.454480637509
0.454658304223
0.454817452682
0.454957945388
0.455079652145
0.455182450595
0.455266226774
0.455330875678
0.455376301848
0.45540241997
0.455409155486
0.455396445221
0.455364238021
0.455312495396
0.455241192182
0.4551503172
0.455039873926
0.454909881164
0.454760373715
0.45459140305
0.454403037968
0.45419536526
0.453968490341
0.453722537884
0.45345765242
0.453173998914
0.452871763315
0.452551153059
0.452212397534
0.45185574849
0.451481480393
0.451089890712
0.450681300127
0.450256052654
0.449814515679
0.449357079884
0.44888415906
0.448396189796
0.447893631025
0.447376963431
0.446846688692
0.44630332855
0.445747423708
0.445179532529
0.444600229539
0.444010103719
0.443409756592
0.442799800081
0.442180854164
0.441553544302
0.440918498678
0.440276345223
0.439627708485
0.438973206339
0.438313446579
0.437649023446
0.436980514112
0.436308475211
0.435633439457
0.434955912439
0.434276369674
0.43359525399
0.432912973348
0.432229899177
0.431546365302
0.430862667539
0.430179064003
0.429495776149
0.42881299055
0.428130861346
0.427449513299
0.426769045304
0.426089534219
0.425411038787
0.424733603486
0.424057262088
0.423382040773
0.422707960691
0.42203503992
0.42136329485
0.420692741072
0.42002339388
0.419355268531
0.418688380353
0.418022744782
0.417358377375
0.416695293812
0.416033509898
0.415373041565
0.414713904872
0.414056116006
0.413399691284
0.412744647156
0.412091000202
0.411438767135
0.410787964804
0.410138610193
0.409490720424
0.408844312756
0.408199404586
0.407556013455
0.406914157041
0.406273853169
0.405635119806
0.404997975064
0.404362437201
0.403728524621
0.403096255863
0.40246564957
0.401836724386
0.401209498718
0.400583990267
0.399960215203
0.399338186899
0.398717914137
0.3980993988
0.397482633079
0.396867596325
0.396254251705
0.39564254283
0.395032390558
0.394423690134
0.393816308814
0.393210084079
0.392604822501
0.3920002993
0.391396258568
0.39079241414
0.390188451044
0.389584027458
0.388978777096
0.388372311929
0.387764225159
0.387154094369
0.386541484755
0.3859259524
0.385307047501
0.384684317522
0.384057310215
0.38342557649
0.382788673099
0.382146165114
0.381497628202
0.380842650672
0.380180835305
0.379511800959
0.378835183965
0.378150639314
0.377457841638
0.376756486014
0.376046288584
0.375326987011
0.374598340784
0.373860131383
0.373112162318
0.372354259046
0.371586268794
0.37080806028
0.370019523358
0.369220568589
0.368411126746
0.367591148271
0.366760602681
0.36591947794
0.365067779795
0.364205531091
0.363332771065
0.362449554624
0.361555951619
0.360652046107
0.359737935619
0.358813730426
0.357879552809
0.356935536341
0.355981825177
0.355018573355
0.354045944116
0.353064109231
0.352073248356
0.351073548393
0.350065202882
0.3490484114
0.34802337899
0.346990315604
0.345949435572
0.344900957085
0.343845101706
0.342782093897
0.341712160567
0.340635530642
0.339552434656
0.338463104358
0.337367772342
0.336266671696
0.335160035664
0.334048097338
0.332931089354
0.331809243613
0.33068279102
0.329551961232
0.328416982431
0.327278081101
0.32613548183
0.324989407118
0.323840077205
0.322687709906
0.321532520461
0.320374721399
0.319214522407
0.318052130219
0.316887748505
0.315721577776
0.3145538153
0.313384655021
0.31221428749
0.311042899804
0.309870675552
0.308697794767
0.307524433887
0.306350765719
0.305176959416
0.30400318045
0.302829590596
0.301656347922
0.300483606783
0.299311517812
0.29814022793
0.296969880345
0.29580061456
0.294632566391
0.293465867977
0.2923006478
0.291137030704
0.289975137919
0.288815087087
0.287656992287
0.286500964067
0.28534710947
0.284195532072
0.283046332012
0.281899606026
0.280755447487
0.279613946438
0.278475189631
0.277339260567
0.276206239533
0.275076203643
0.273949226875
0.272825380119
0.271704731208
0.270587344965
0.269473283245
0.268362604971
0.26725536618
0.266151620059
0.265051416991
0.263954804595
0.262861827761
0.261772528698
0.26068694697
0.259605119533
0.258527080782
0.257452862582
0.256382494312
0.2553160029
0.254253412862
0.253194746339
0.252140023134
0.251089260749
0.250042474417
0.248999677142
0.247960879731
0.246926090829
0.245895316951
0.244868562518
0.243845829887
0.242827119384
0.241812429336
0.2408017561
0.239795094095
0.238792435833
0.237793771943
0.236799091207
0.235808380582
0.234821625234
0.233838808557
0.232859912209
0.231884916129
0.230913798573
0.229946536128
0.228983103747
0.228023474768
0.227067620938
0.226115512438
0.225167117908
0.224222404465
0.22328133773
0.222343881848
0.221409999508
0.22047965197
0.219552799079
0.218629399291
0.217709409691
0.216792786015
0.215879482667
0.214969452741
0.214062648042
0.2131590191
0.212258515195
0.211361084371
0.21046667346
0.209575228094
0.208686692729
0.20780101066
0.206918124043
0.206037973907
0.205160500179
0.204285641697
0.203413336231
0.202543520497
0.201676130181
0.200811099951
0.199948363481
0.199087853463
0.198229501629
0.197373238768
0.196518994745
0.195666698518
0.19481627816
0.193967660871
0.193120773006
0.192275540087
0.191431886824
0.190589737135
0.189749014168
0.188909640317
0.188071537244
0.1872346259
0.186398826546
0.185564058771
0.18473024152
0.183897293109
0.18306513125
0.182233673074
0.181402835155
0.18057253353
0.179742683724
0.178913200778
0.178083999269
0.177254993336
0.176426096707
0.175597222727
0.17476828438
0.173939194319
0.173109864894
0.172280208182
0.17145013601
0.170619559993
0.169788391557
0.168956541974
0.168123922392
0.167290443867
0.166456017398
0.165620553957
0.164783964528
0.163946160136
0.163107051889
0.162266551011
0.16142456888
0.160581017065
0.159735807368
0.158888851861
0.158040062929
0.157189353309
0.156336636132
0.155481824971
0.154624833878
0.153765577436
0.152903970801
0.152039929747
0.151173370721
0.150304210883
0.149432368164
0.14855776131
0.147680309938
0.146799934588
0.145916556775
0.145030099046
0.144140485037
0.143247639525
0.142351488491
0.141451959177
0.140548980147
0.139642481349
0.138732394174
0.137818651524
0.136901187874
0.135979939339
0.13505484374
0.134125840672
0.133192871576
0.132255879806
0.131314810701
0.130369611659
0.129420232212
0.128466624096
0.127508741335
0.12654654031
0.125579979843
0.124609021275
0.123633628546
0.122653768279
0.121669409859
0.120680525522
0.119687090437
0.118689082793
0.117686483885
0.116679278206
0.115667453532
0.114651001015
0.113629915274
0.112604194487
0.111573840483
0.110538858838
0.109499258968
0.108455054226
0.107406261997
0.106352903797
0.105295005369
0.104232596781
0.103165712526
0.102094391621
0.101018677704
0.0999386191385
0.09885426911
0.0977656857273
0.0966729321223
0.0955760765508
0.0944751924918
0.0933703587476
0.0922616595425
0.0911491846219
0.0900330293504
0.0889132948083
0.0877900878883
0.0866635213904
0.0855337141154
0.0844007909573
0.0832648829933
0.0821261275729
0.0809846684039
0.0798406556368
0.0786942459458
0.0775456026076
0.0763948955772
0.0752423015594
0.0740880040775
0.0729321935378
0.0717750672894
0.0706168296797
0.0694576921048
0.0682978730542
0.0671375981503
0.0659771001814
0.0648166191275
0.0636564021802
0.0624967037542
0.0613377854908
0.0601799162535
0.0590233721139
0.0578684363282
0.0567153993038
0.0555645585548
0.0544162186463
0.053270691127
0.0521282944483
0.0509893538714
0.0498542013592
0.0487231754542
0.0475966211406
0.0464748896908
0.0453583384938
0.044247330867
0.0431422358489
0.0420434279728
0.0409512870191
0.0398661977485
0.0387885496115
0.0377187364357
0.0366571560901
0.0356042101236
0.0345603033792
0.0335258435811
0.0325012408949
0.0314869074603
0.0304832568936
0.0294907037622
0.0285096630275
0.0275405494565
0.0265837770027
0.025639758153
0.0247089032426
0.0237916197353
0.0228883114708
0.0219993778764
0.0211252131452
0.0202662053784
0.0194227356945
0.0185951773019
0.0177838945394
0.0169892418819
0.0162115629139
0.0154511892706
0.0147084395496
0.0139836181926
0.013277014341
0.0125889006662
0.0119195321784
0.0112691450155
0.0106379552178
0.0100261574899
0.00943392395683
0.00886140291757
0.00830871760297
0.00777596494406
0.00726321435775
0.00677050655813
0.00629785240182
0.00584523177702
0.00541259254672
0.00499984955735
0.00460688372518
0.00423354121383
0.00387963271701
0.00354493286183
0.00322917974876
0.00293207464546
0.00265328185216
0.00239242875759
0.00214910610422
0.0019228684829
0.00171323507619
0.00151969067028
0.00134168695426
0.00117864412482
0.00102995281258
0.000894976344214
0.000773053351281
0.000663500732862
0.000565616974019
0.000478685816143
0.000401980267879
0.00033476693681
0.000276310652161
0.000225879337619
0.00018274908103
0.000146209334345
0.000115568163217
9.01574514727e-05
6.93379520678e-05
5.25040638668e-05
3.90882039137e-05
2.85646389581e-05
2.0452639468e-05
1.43188257387e-05
9.77859055091e-06
6.49650744648e-06
4.18566886236e-06
2.60594401849e-06
1.56120128972e-06
8.9560089945e-07
4.89126404021e-07
2.52580990645e-07
1.22319046705e-07
5.5006269998e-08
2.26954289537e-08
8.46571651603e-09
2.80301560995e-09
8.05019230845e-10
1.94726437642e-10
3.81868187595e-11
5.77299982066e-12
6.28659677099e-13
4.48909488696e-14
1.8536307096e-15
3.50132410687e-17
0
0
0
0
0
0
0
0
)
;

boundaryField
{
    left
    {
        type            cyclic;
    }
    right
    {
        type            cyclic;
    }
    frontAndBack
    {
        type            empty;
    }
}


// ************************************************************************* //
