/*--------------------------------*- C++ -*----------------------------------*\
| =========                 |                                                 |
| \\      /  F ield         | OpenFOAM: The Open Source CFD Toolbox           |
|  \\    /   O peration     | Version:  v2112                                 |
|   \\  /    A nd           | Website:  www.openfoam.com                      |
|    \\/     M anipulation  |                                                 |
\*---------------------------------------------------------------------------*/
FoamFile
{
    version     2.0;
    format      ascii;
    class       volScalarField;
    location    "0";
    object      moment.4.populationBalance;
}
// * * * * * * * * * * * * * * * * * * * * * * * * * * * * * * * * * * * * * //

dimensions      [0 1 0 0 0 0 0];

internalField   nonuniform List<scalar> 
1000
(
0
0
0
0
0
0
0
0
1.39778949822e-17
7.42336883525e-16
1.803404886e-14
2.5333490651e-13
2.33353519723e-12
1.54827519142e-11
7.91899390971e-11
3.28360103443e-10
1.1467199776e-09
3.47353824318e-09
9.33925210823e-09
2.27007471887e-08
5.06250284626e-08
1.0483448086e-07
2.03585113396e-07
3.7380926279e-07
6.53422886749e-07
1.0936787508e-06
1.76144153716e-06
2.7412678651e-06
4.1371906285e-06
6.07412955522e-06
8.69887518554e-06
1.2180618777e-05
1.67110239008e-05
2.25038553699e-05
2.97941969507e-05
3.88373009003e-05
4.9907119956e-05
6.32945764354e-05
7.93056241579e-05
9.82591575927e-05
0.000120484819568
0.000146320754577
0.000176111349672
0.000210204999472
0.000248951926328
0.000292702081265
0.00034180314627
0.000396598653801
0.000457426235171
0.000524616005748
0.000598489091674
0.00067935630005
0.000767516932211
0.000863257737855
0.000966852006193
0.00107855878917
0.00119862225082
0.00132727113619
0.0014647183528
0.00161116065737
0.00176677844027
0.00193173560041
0.00210617950308
0.00229024101353
0.00248403459947
0.00268765849562
0.00290119492399
0.00312471036383
0.0033582558654
0.00360186740234
0.00385556625746
0.00411935943718
0.00439324011051
0.00467718806819
0.00497117019856
0.00527514097645
0.00558904296221
0.00591280730785
0.00624635426763
0.00658959371097
0.0069424256353
0.00730474067696
0.00767642061865
0.00805733889154
0.00844736107096
0.00884634536436
0.00925414309045
0.00967059914867
0.0100955524782
0.0105288365056
0.0109702795813
0.011419705403
0.0118769334272
0.0123417792677
0.0128140550809
0.0132935699378
0.0137801301828
0.0142735397791
0.0147736006407
0.0152801129509
0.015792875468
0.0163116858174
0.0168363407712
0.017366636515
0.0179023689017
0.0184433336939
0.0189893267932
0.0195401444587
0.0200955835136
0.0206554415403
0.0212195170653
0.0217876097327
0.0223595204685
0.0229350516338
0.0235140071692
0.0240961927294
0.0246814158092
0.0252694858604
0.025860214401
0.0264534151152
0.0270489039473
0.0276464991864
0.0282460215454
0.0288472942326
0.0294501430163
0.0300543962843
0.0306598850959
0.0312664432299
0.0318739072253
0.0324821164188
0.0330909129753
0.0337001419154
0.0343096511376
0.034919291436
0.0355289165152
0.0361383829995
0.0367475504407
0.0373562813203
0.0379644410503
0.0385718979699
0.0391785233397
0.0397841913332
0.0403887790257
0.0409921663809
0.0415942362353
0.0421948742808
0.0427939690444
0.0433914118675
0.0439870968826
0.0445809209884
0.045172783824
0.0457625877418
0.0463502377784
0.0469356416251
0.0475187095973
0.0480993546029
0.0486774921095
0.0492530401116
0.0498259190962
0.0503960520088
0.0509633642181
0.0515277834802
0.0520892399034
0.0526476659113
0.0532029962064
0.0537551677336
0.0543041196429
0.0548497932526
0.0553921320118
0.0559310814634
0.0564665892068
0.0569986048609
0.0575270800263
0.0580519682492
0.0585732249835
0.059090807555
0.0596046751238
0.0601147886489
0.0606211108514
0.0611236061788
0.0616222407693
0.0621169824167
0.0626078005352
0.0630946661245
0.0635775517359
0.0640564314377
0.064531280782
0.0650020767711
0.0654687978248
0.0659314237478
0.0663899356973
0.0668443161518
0.0672945488791
0.0677406189061
0.0681825124878
0.0686202170773
0.0690537212963
0.0694830149058
0.0699080887773
0.0703289348644
0.070745546175
0.0711579167435
0.071566041604
0.0719699167636
0.0723695391761
0.0727649067161
0.0731560181539
0.0735428731303
0.0739254721323
0.0743038164688
0.0746779082469
0.0750477503487
0.0754133464083
0.0757747007896
0.0761318185638
0.0764847054881
0.076833367984
0.077177813117
0.0775180485754
0.0778540826504
0.0781859242167
0.0785135827125
0.0788370681207
0.0791563909504
0.0794715622184
0.0797825934309
0.0800894965666
0.0803922840588
0.0806909687783
0.0809855640175
0.0812760834733
0.0815625412315
0.0818449517511
0.0821233298486
0.0823976906833
0.0826680497423
0.0829344228259
0.0831968260337
0.0834552757502
0.0837097886317
0.0839603815922
0.0842070717909
0.0844498766191
0.0846888136874
0.0849239008135
0.0851551560101
0.0853825974729
0.0856062435689
0.0858261128252
0.0860422239176
0.0862545956594
0.0864632469913
0.0866681969701
0.0868694647587
0.0870670696158
0.0872610308863
0.0874513679909
0.087638100417
0.0878212477091
0.0880008294597
0.0881768653001
0.0883493748915
0.0885183779164
0.08868389407
0.0888459430519
0.0890045445576
0.0891597182705
0.0893114838541
0.0894598609442
0.0896048691408
0.0897465280011
0.0898848570319
0.0900198756821
0.0901516033358
0.0902800593055
0.0904052628243
0.0905272330403
0.090645989009
0.0907615496869
0.0908739339255
0.0909831604643
0.0910892479249
0.0911922148048
0.0912920794711
0.0913888601548
0.0914825749447
0.0915732417818
0.0916608784533
0.091745502587
0.091827131646
0.0919057829231
0.0919814735351
0.0920542204179
0.0921240403211
0.0921909498025
0.0922549652234
0.0923161027435
0.0923743783157
0.0924298076811
0.0924824063648
0.0925321896702
0.0925791726751
0.0926233702263
0.0926647969357
0.0927034671753
0.0927393950728
0.0927725945072
0.0928030791047
0.0928308622339
0.0928559570021
0.0928783762508
0.0928981325515
0.092915238202
0.0929297052223
0.0929415453504
0.0929507700388
0.0929573904507
0.0929614174561
0.0929628616281
0.0929617332397
0.0929580422601
0.0929517983512
0.0929430108644
0.0929316888373
0.0929178409909
0.092901475726
0.0928826011204
0.0928612249265
0.092837354568
0.0928109971377
0.0927821593945
0.0927508477616
0.0927170683239
0.092680826826
0.0926421286701
0.0926009789143
0.0925573822711
0.0925113431056
0.0924628654344
0.0924119529245
0.0923586088922
0.0923028363026
0.0922446377691
0.092184015553
0.0921209715634
0.0920555073578
0.0919876241424
0.0919173227726
0.0918446037548
0.0917694672471
0.0916919130613
0.0916119406652
0.0915295491845
0.0914447374063
0.0913575037817
0.0912678464298
0.0911757631417
0.0910812513849
0.0909843083087
0.0908849307491
0.0907831152357
0.0906788579974
0.0905721549703
0.0904630018052
0.090351393876
0.0902373262889
0.0901207938924
0.0900017912872
0.0898803128381
0.0897563526855
0.089629904759
0.0895009627901
0.0893695203278
0.0892355707533
0.0890991072971
0.0889601230559
0.0888186110116
0.0886745640505
0.0885279749841
0.0883788365709
0.0882271415393
0.0880728826119
0.087916052531
0.0877566440853
0.0875946501381
0.0874300636569
0.0872628777439
0.087093085669
0.0869206809035
0.0867456571552
0.0865680084063
0.086387728951
0.0862048134366
0.0860192569053
0.0858310548379
0.0856402031993
0.0854466984856
0.0852505377736
0.0850517187711
0.0848502398703
0.0846461002016
0.0844392996909
0.0842298391169
0.0840177201721
0.0838029455244
0.0835855188808
0.0833654450531
0.0831427300253
0.0829173810224
0.0826894065815
0.0824588166235
0.0822256225271
0.0819898372042
0.0817514751755
0.081510552649
0.0812670875976
0.0810210998388
0.0807726111147
0.080521645172
0.0802682278424
0.080012387123
0.0797541532563
0.0794935588086
0.0792306387486
0.078965430523
0.0786979741313
0.0784283121971
0.078156490037
0.0778825557255
0.0776065601557
0.077328557095
0.0770486032351
0.0767667582353
0.0764830847587
0.0761976484998
0.0759105182029
0.0756217656696
0.0753314657561
0.0750396963564
0.0747465383722
0.0744520756679
0.0741563950088
0.073859585981
0.0735617408929
0.0732629546554
0.0729633246402
0.0726629505146
0.0723619340522
0.0720603789165
0.0717583904186
0.0714560752469
0.0711535411681
0.0708508966995
0.0705482507528
0.07024571225
0.069943389712
0.0696413908222
0.0693398219674
0.0690387877596
0.0687383905425
0.0684387298892
0.0681399020963
0.0678419996832
0.0675451109051
0.0672493192896
0.0669547032078
0.0666613354928
0.0663692831161
0.0660786069359
0.0657893615286
0.0655015951129
0.0652153495771
0.064930660613
0.0646475579588
0.0643660657481
0.0640862029543
0.0638079839174
0.063531418932
0.0632565148697
0.0629832758087
0.0627117036401
0.0624417986219
0.0621735598592
0.0619069856957
0.0616420740101
0.0613788224248
0.0611172284383
0.0608572895013
0.0605990030545
0.0603423665451
0.0600873774326
0.0598340331913
0.0595823313105
0.0593322692959
0.0590838446692
0.0588370549696
0.0585918977535
0.0583483705958
0.0581064710899
0.0578661968485
0.0576275455042
0.0573905147099
0.0571551021394
0.0569213054882
0.0566891224737
0.0564585508359
0.0562295883381
0.0560022327676
0.0557764819356
0.0555523336785
0.0553297858583
0.0551088363628
0.0548894831065
0.0546717240292
0.0544555570924
0.0542409802658
0.0540279914965
0.053816588646
0.0536067693825
0.0533985310138
0.0531918702537
0.0529867829219
0.052783263584
0.0525813051502
0.0523808984517
0.0521820318204
0.051984690696
0.0517888572833
0.0515945102762
0.0514016246622
0.0512101716143
0.0510201184733
0.0508314288163
0.0506440626081
0.0504579764239
0.050273123735
0.0500894552443
0.0499069192607
0.0497254621011
0.0495450285076
0.0493655620719
0.0491870056572
0.0490093018099
0.0488323931562
0.0486562227771
0.0484807345591
0.0483058735178
0.0481315860915
0.0479578204055
0.0477845265054
0.0476116565597
0.0474391650337
0.0472670088341
0.0470951474263
0.0469235429267
0.0467521601704
0.0465809667567
0.0464099330744
0.0462390323082
0.0460682404285
0.0458975361661
0.0457269009732
0.0455563189726
0.0453857768974
0.0452152640202
0.0450447720766
0.0448742951809
0.0447038297373
0.0445333743468
0.0443629297109
0.0441924985328
0.0440220854171
0.0438516967688
0.0436813406916
0.0435110268867
0.0433407665529
0.0431705722867
0.0430004579852
0.04283043875
0.0426605307938
0.0424907513492
0.0423211185803
0.0421516514963
0.0419823698692
0.0418132941534
0.0416444454091
0.041475845228
0.041307515663
0.0411394791605
0.0409717584959
0.0408043767124
0.0406373570626
0.0404707229532
0.0403044978932
0.0401387054442
0.039973369174
0.039808512613
0.0396441592132
0.03948033231
0.0393170550861
0.0391543505386
0.0389922414475
0.0388307503475
0.0386698995012
0.0385097108746
0.0383502061151
0.0381914065306
0.0380333330713
0.0378760063123
0.0377194464388
0.0375636732323
0.0374087060583
0.0372545638561
0.0371012651288
0.0369488279355
0.0367972698846
0.0366466081276
0.0364968593547
0.036348039791
0.0362001651938
0.0360532508506
0.0359073115779
0.0357623617213
0.0356184151552
0.0354754852846
0.0353335850462
0.0351927269106
0.0350529228855
0.0349141845182
0.0347765228998
0.0346399486689
0.0345044720159
0.034370102688
0.0342368499938
0.0341047228087
0.0339737295806
0.0338438783349
0.033715176681
0.033587631818
0.0334612505406
0.0333360392457
0.0332120039384
0.0330891502382
0.032967483386
0.0328470082497
0.0327277293313
0.0326096507729
0.0324927763632
0.032377109544
0.0322626534163
0.0321494107468
0.0320373839738
0.0319265752136
0.0318169862664
0.0317086186221
0.0316014734665
0.0314955516866
0.0313908538766
0.0312873803431
0.0311851311105
0.0310841059263
0.0309843042664
0.0308857253395
0.0307883680925
0.0306922312147
0.0305973131426
0.0305036120642
0.0304111259229
0.030319852422
0.0302297890283
0.0301409329758
0.0300532812695
0.0299668306884
0.0298815777891
0.0297975189086
0.0297146501673
0.0296329674718
0.0295524665172
0.02947314279
0.0293949915698
0.0293180079315
0.0292421867476
0.0291675226892
0.0290940102284
0.029021643639
0.0289504169983
0.0288803241877
0.0288113588941
0.0287435146103
0.0286767846359
0.0286111620775
0.0285466398491
0.0284832106723
0.0284208670763
0.0283596013977
0.0282994057801
0.0282402721739
0.0281821923355
0.0281251578265
0.028069160013
0.0280141900646
0.0279602389531
0.0279072974512
0.0278553561311
0.0278044053629
0.0277544353132
0.0277054359427
0.0276573970049
0.0276103080433
0.0275641583901
0.0275189371629
0.0274746332632
0.0274312353731
0.0273887319532
0.0273471112394
0.0273063612403
0.0272664697342
0.0272274242659
0.0271892121438
0.0271518204363
0.0271152359685
0.027079445319
0.0270444348162
0.0270101905348
0.0269766982918
0.0269439436433
0.02691191188
0.0268805880239
0.0268499568242
0.0268200027528
0.0267907100012
0.0267620624753
0.0267340437922
0.0267066372753
0.0266798259505
0.0266535925419
0.0266279194671
0.0266027888338
0.0265781824343
0.0265540817424
0.0265304679082
0.0265073217542
0.026484623771
0.0264623541128
0.0264404925935
0.0264190186821
0.026397911499
0.0263771498113
0.0263567120292
0.0263365762019
0.0263167200134
0.0262971207792
0.0262777554417
0.0262586005675
0.0262396323431
0.0262208265717
0.0262021586701
0.0261836036652
0.0261651361911
0.0261467304862
0.0261283603907
0.0261099993437
0.026091620381
0.0260731961332
0.0260546988234
0.0260361002657
0.0260173718639
0.0259984846098
0.0259794090827
0.0259601154486
0.0259405734599
0.025920752455
0.0259006213588
0.0258801486834
0.0258593025287
0.0258380505839
0.025816360129
0.0257941980372
0.025771530777
0.0257483244151
0.0257245446199
0.0257001566654
0.0256751254352
0.0256494154273
0.0256229907596
0.0255958151754
0.02556785205
0.0255390643975
0.0255094148781
0.0254788658066
0.0254473791608
0.025414916591
0.0253814394298
0.0253469087031
0.0253112851413
0.0252745291914
0.0252366010297
0.0251974605757
0.0251570675063
0.0251153812707
0.025072361107
0.0250279660582
0.0249821549906
0.0249348866118
0.0248861194903
0.024835812076
0.024783922721
0.0247304097025
0.0246752312453
0.0246183455464
0.0245597107998
0.0244992852233
0.024437027085
0.0243728947321
0.0243068466201
0.0242388413434
0.0241688376666
0.0240967945573
0.0240226712202
0.0239464271316
0.0238680220759
0.0237874161827
0.0237045699655
0.0236194443613
0.0235320007712
0.0234422011033
0.0233500078149
0.0232553839583
0.0231582932254
0.0230586999957
0.0229565693839
0.0228518672895
0.0227445604478
0.0226346164815
0.0225220039539
0.0224066924236
0.0222886524993
0.0221678558973
0.0220442754991
0.0219178854104
0.0217886610211
0.0216565790672
0.0215216176924
0.0213837565122
0.0212429766779
0.021099260942
0.0209525937249
0.0208029611817
0.0206503512706
0.0204947538214
0.0203361606057
0.0201745654065
0.0200099640895
0.0198423546743
0.0196717374064
0.0194981148292
0.0193214918568
0.0191418758462
0.0189592766708
0.0187737067923
0.0185851813341
0.018393718153
0.0181993379115
0.018002064149
0.017801923353
0.0175989450283
0.0173931617667
0.0171846093143
0.0169733266379
0.0167593559903
0.0165427429733
0.0163235365989
0.0161017893486
0.0158775572299
0.0156508998308
0.0154218803707
0.0151905657489
0.0149570265891
0.0147213372806
0.0144835760153
0.0142438248208
0.0140021695884
0.0137587000963
0.0135135100279
0.0132666969842
0.0130183624899
0.0127686119937
0.0125175548617
0.0122653043631
0.012011977649
0.0117576957232
0.0115025834036
0.0112467692763
0.0109903856387
0.0107335684341
0.0104764571753
0.0102191948579
0.00996192786206
0.0097048058425
0.00944798160682
0.00919161098058
0.00893585265951
0.00868086804799
0.00842682108344
0.00817387804606
0.0079222073536
0.00767197934059
0.00742336602171
0.00717654083883
0.00693167839136
0.00668895414968
0.00644854415116
0.00621062467872
0.00597537192154
0.00574296161798
0.00551356868043
0.00528736680221
0.0050645280466
0.00484522241808
0.00462961741619
0.00441787757228
0.00421016396974
0.00400663374839
0.00380743959374
0.00361272921224
0.00342264479361
0.00323732246166
0.00305689171515
0.00288147486059
0.00271118643907
0.00254613264937
0.00238641077022
0.00223210858458
0.00208330380922
0.00194006353345
0.00180244367095
0.00167048842922
0.0015442298015
0.00142368708651
0.00130886644179
0.0011997604767
0.00109634789188
0.000998593172082
0.0009064463399
0.000819842778258
0.000738703129716
0.000662933281091
0.000592424441904
0.000527053325311
0.000466682440017
0.000411160501445
0.000360322969921
0.000313992722889
0.000271980867169
0.000234087695809
0.000200103792366
0.000169811283175
0.00014298523546
0.000119395195916
9.88068605869e-05
8.09838625697e-05
6.56896592182e-05
5.26894952539e-05
4.17524125701e-05
3.26532717562e-05
2.51747447053e-05
1.91092324379e-05
1.42606578992e-05
1.04460804842e-05
7.49707798945e-06
5.2608432219e-06
3.6009472431e-06
2.39772973381e-06
1.5482896049e-06
9.66065798588e-07
5.80018807715e-07
3.3344676159e-07
1.82494239951e-07
9.4434797994e-08
4.58264373671e-08
2.06496217685e-08
8.53696475738e-09
3.19066569462e-09
1.05848058548e-09
3.04572547817e-10
7.38114734023e-11
1.45015437603e-11
2.196299001e-12
2.39597379216e-13
1.71391457824e-14
7.08932588312e-16
1.34138300788e-17
0
0
0
0
0
0
0
0
)
;

boundaryField
{
    left
    {
        type            cyclic;
    }
    right
    {
        type            cyclic;
    }
    frontAndBack
    {
        type            empty;
    }
}


// ************************************************************************* //
