/*--------------------------------*- C++ -*----------------------------------*\
  =========                 |
  \\      /  F ield         | OpenFOAM: The Open Source CFD Toolbox
   \\    /   O peration     | Website:  https://openfoam.org
    \\  /    A nd           | Version:  dev
     \\/     M anipulation  |
\*---------------------------------------------------------------------------*/
FoamFile
{
    version     2.0;
    format      ascii;
    class       surfaceScalarField;
    location    "0";
    object      phi;
}
// * * * * * * * * * * * * * * * * * * * * * * * * * * * * * * * * * * * * * //

dimensions      [ 1 0 -1 0 0 0 0 ];

internalField   nonuniform List<scalar> 
5870
(
1.2447747656e-09
1.32300964967e-09
1.59173762335e-09
2.2208215557e-09
1.54988345881e-09
2.60963857873e-09
1.35455939858e-09
2.76310847619e-09
1.12490774891e-09
2.79743606164e-09
9.10623931006e-10
2.78206823132e-09
7.29885379095e-10
2.7485229651e-09
5.82614203179e-10
2.71505558851e-09
4.60896962405e-10
2.68950165556e-09
3.58764196237e-10
2.6699171814e-09
2.71493452013e-10
2.65505515945e-09
1.94960576053e-10
2.64431728997e-09
1.26052946362e-10
2.63669204057e-09
6.19618273521e-11
2.63187553545e-09
2.62974624023e-09
-2.12307387816e-18
5.18636516716e-10
8.04373132495e-10
1.01310722446e-09
1.7263508505e-09
1.33089044511e-09
2.29185535631e-09
1.48264013799e-09
2.6113587837e-09
1.50444619626e-09
2.7756300037e-09
1.4348883293e-09
2.85162609654e-09
1.31040303085e-09
2.87300826734e-09
1.15463205363e-09
2.87082656616e-09
9.84282659787e-10
2.85985105102e-09
8.11650079057e-10
2.84254976283e-09
6.41435228814e-10
2.82527001044e-09
4.75306484197e-10
2.81044603187e-09
3.1339447648e-10
2.79860404712e-09
1.55564703444e-10
2.78970530805e-09
2.78531094542e-09
-2.9164189975e-18
2.68036795374e-10
5.36336336115e-10
6.55579587261e-10
1.33880805679e-09
1.00698614219e-09
1.94044880653e-09
1.2563741137e-09
2.36197080856e-09
1.39040527412e-09
2.64159884677e-09
1.42529112696e-09
2.81674024158e-09
1.38347131013e-09
2.91482808353e-09
1.28580173288e-09
2.96849614718e-09
1.14861963389e-09
2.99703314602e-09
9.8379513929e-10
3.00737425855e-09
8.01207342801e-10
3.0078578088e-09
6.07955618156e-10
3.00369775295e-09
4.08438048988e-10
2.99812161761e-09
2.04995465576e-10
2.99314789389e-09
2.99030640847e-09
1.97956396436e-18
1.25779499153e-10
4.1055683449e-10
3.61482332198e-10
1.10310522423e-09
6.25381078302e-10
1.67655006281e-09
8.61081176961e-10
2.12627071208e-09
1.03709169734e-09
2.46558832501e-09
1.14095785234e-09
2.71287408271e-09
1.16981171519e-09
2.88597421816e-09
1.13496661934e-09
3.00334124382e-09
1.05054815643e-09
3.08145161122e-09
9.26518380872e-10
3.13140402829e-09
7.72432831616e-10
3.16194336027e-09
5.96525344168e-10
3.17960524015e-09
4.05561970098e-10
3.18908498896e-09
2.05078095718e-10
3.19363176766e-09
3.19538450505e-09
-7.55926248309e-19
6.56010727804e-11
3.44955763101e-10
2.11688653947e-10
9.57017640565e-10
3.94908221922e-10
1.49333049668e-09
5.76682852603e-10
1.94449608122e-09
7.29970905083e-10
2.31230027551e-09
8.38995780965e-10
2.60384920463e-09
8.96094693578e-10
2.82887531021e-09
9.00915651134e-10
2.99852028567e-09
8.58498869247e-10
3.12386838842e-09
7.75413117658e-10
3.21448978238e-09
6.58920459534e-10
3.27843601937e-09
5.1632634706e-10
3.32219935559e-09
3.54622622808e-10
3.35078870736e-09
1.8040324493e-10
3.36785114704e-09
3.3757877507e-09
-3.10579322228e-18
3.65805717005e-11
3.08375192492e-10
1.2543865426e-10
8.68159556263e-10
2.45216431164e-10
1.3735527232e-09
3.73228942751e-10
1.81648356728e-09
4.90381516708e-10
2.19514770259e-09
5.82742098093e-10
2.51148862313e-09
6.41510709856e-10
2.77010669619e-09
6.62723367667e-10
2.9773076303e-09
6.46443742671e-10
3.14014801166e-09
5.95387565258e-10
3.26554595847e-09
5.13980213547e-10
3.35984337453e-09
4.07655695873e-10
3.42852387163e-09
2.82382748159e-10
3.47606165409e-09
1.44383698749e-10
3.50585019682e-09
3.52017145198e-09
-2.07880361362e-18
2.10937828939e-11
2.87281409373e-10
7.58155666113e-11
8.13437770379e-10
1.53066071746e-10
1.29630222011e-09
2.39674456395e-10
1.72987518543e-09
3.2323861251e-10
2.11158354242e-09
3.93462629646e-10
2.44126460396e-09
4.42795298298e-10
2.72077403015e-09
4.66648957238e-10
2.95345397181e-09
4.63237817497e-10
3.1435591505e-09
4.33081286998e-10
3.29570248821e-09
3.78487499873e-10
3.41443716595e-09
3.03075507504e-10
3.5039358604e-09
2.11376149202e-10
3.56776101435e-09
1.085199266e-10
3.60870642082e-09
3.62869138036e-09
-1.22143761576e-18
1.24874093902e-11
2.747939985e-10
4.59695518759e-11
7.79955631904e-10
9.47446899918e-11
1.24752707913e-09
1.51360509025e-10
1.67325936893e-09
2.08116947458e-10
2.05482710236e-09
2.57998188122e-10
2.3913833643e-09
2.95318102302e-10
2.68345411328e-09
3.16088634154e-10
2.93268343951e-09
3.18131590749e-10
3.14151619116e-09
3.00974026551e-10
3.31286005449e-09
2.65634191908e-10
3.44977699715e-09
2.14355393896e-10
3.55521465665e-09
1.50330073259e-10
3.63178633088e-09
7.74372463821e-11
3.68159924652e-09
3.70612862645e-09
-2.58701975919e-18
7.31211000187e-12
2.67481888322e-10
2.76193333717e-11
7.5964840741e-10
5.7967235953e-11
1.21717917307e-09
9.41277605539e-11
1.63709884146e-09
1.3141746053e-10
2.01753740337e-09
1.65271363672e-10
2.35752946277e-09
1.91719391251e-10
2.65700608257e-09
2.07721150164e-10
2.91668167678e-09
2.1135127055e-10
3.13788607095e-09
2.01846620366e-10
3.32236470525e-09
1.79551485628e-10
3.47207213332e-09
1.45791727312e-10
3.58897441733e-09
1.02705477017e-10
3.67487258253e-09
5.30508536858e-11
3.73125387049e-09
3.75917948253e-09
1.63114314826e-18
4.23447612603e-12
2.63247412828e-10
1.63162749028e-11
7.47566610233e-10
3.47772205993e-11
1.19871822857e-09
5.72698587732e-11
1.61460620641e-09
8.101107558e-11
1.99379618324e-09
1.03129304603e-10
2.33541123012e-09
1.20985834768e-10
2.63914955238e-09
1.32430426172e-10
2.90523708348e-09
1.35975760705e-10
3.13434074243e-09
1.30887488089e-10
3.32745298024e-09
1.17198864264e-10
3.48576075376e-09
9.5662573514e-11
3.61051070654e-09
6.76538970254e-11
3.70288125967e-09
3.50388652792e-11
3.76386890389e-09
3.79421835081e-09
1.22011778621e-18
2.36341660546e-12
2.60883996158e-10
9.35889583309e-12
7.40571129573e-10
2.03043689898e-11
1.18777275803e-09
3.392524467e-11
1.60098533046e-09
4.86036746023e-11
1.97911775262e-09
6.2583349281e-11
2.32143155854e-09
7.41752220424e-11
2.62755768041e-09
8.19359705256e-11
2.89747632934e-09
8.48047796366e-11
3.13147194035e-09
8.21907006692e-11
3.3300670556e-09
7.40097713254e-11
3.49394168344e-09
6.06750810311e-11
3.62384539772e-09
4.30470934904e-11
3.72050924776e-09
2.23569245176e-11
3.7845590701e-09
3.81657527494e-09
8.26124040224e-19
1.26004721556e-12
2.59623948092e-10
5.15585676015e-12
7.36675319852e-10
1.14210061546e-11
1.18150760857e-09
1.93977828675e-11
1.59300855462e-09
2.81760233264e-11
1.9703395058e-09
3.67136384133e-11
2.31289394165e-09
4.39650889534e-11
2.62030622927e-09
4.90000601927e-11
2.89244136377e-09
5.11014993373e-11
3.12937049982e-09
4.98357595641e-11
3.33133279311e-09
4.50911185502e-11
3.49868632687e-09
3.70842619299e-11
3.631852254e-09
2.63367241511e-11
3.73125678606e-09
1.36490755928e-11
3.79724672018e-09
3.83022435052e-09
-2.9319943919e-18
6.17949962459e-13
2.59005997993e-10
2.66882020518e-12
7.34624451362e-10
6.0933092731e-12
1.17808311849e-09
1.05778445952e-11
1.58852402283e-09
1.56327672546e-11
1.96528458191e-09
2.06616934863e-11
2.30786501572e-09
2.50398045831e-11
2.6159281191e-09
2.81899066868e-11
2.88929126209e-09
2.96488233481e-11
3.12791157867e-09
2.91182867071e-11
3.33186333397e-09
2.64964402733e-11
3.50130817079e-09
2.18884799831e-11
3.63646021773e-09
1.55962022574e-11
3.73754906161e-09
8.06962875357e-12
3.80477329471e-09
3.83829398042e-09
-2.12681270969e-18
2.62338989692e-13
2.58743658532e-10
1.25000934652e-12
7.33636783154e-10
2.99834900144e-12
1.17633477503e-09
5.38122017625e-12
1.58614115046e-09
8.15344590438e-12
1.96251235228e-09
1.09899617542e-11
2.30502850436e-09
1.35324588386e-11
2.6133856258e-09
1.54367047995e-11
2.88738701517e-09
1.64156131524e-11
3.12693267036e-09
1.62737953962e-11
3.33200515136e-09
1.49303052556e-11
3.50265165921e-09
1.24273808886e-11
3.63896314051e-09
8.92414015644e-12
3.74105230203e-09
4.65608645106e-12
3.80904135142e-09
3.8429500666e-09
-1.96786259727e-19
7.46239978979e-14
2.58669034411e-10
4.74795484045e-13
7.33236611417e-10
1.27013217162e-12
1.17553943717e-09
2.43044707616e-12
1.58498083736e-09
3.84725018357e-12
1.96109554714e-09
5.35506141322e-12
2.30352069347e-09
6.75837314698e-12
2.61198231079e-09
7.8601551324e-12
2.88628523423e-09
8.48874787069e-12
3.12630408024e-09
8.52036911666e-12
3.3319735305e-09
7.8948596142e-12
3.50327717165e-09
6.62299715875e-12
3.64023500107e-09
4.78507684436e-12
3.74289022453e-09
2.51614955897e-12
3.81131027852e-09
3.8454662137e-09
1.59471519737e-18
-1.52248171903e-14
2.58684260599e-10
7.94726786144e-14
7.3314191055e-10
3.59052665815e-13
1.17525985559e-09
8.37915979153e-13
1.58450197638e-09
1.48009800303e-12
1.96045336807e-09
2.2105800979e-12
2.30279021219e-09
2.930033359e-12
2.61126285601e-09
3.53136486022e-12
2.88568390394e-09
3.91600296219e-12
3.1259194392e-09
4.00819526301e-12
3.33188133906e-09
3.76574892328e-12
3.5035196161e-09
3.18632230244e-12
3.64081442907e-09
2.30906559006e-12
3.7437674806e-09
1.21581816451e-12
3.81240352948e-09
3.84668202881e-09
2.86000283618e-19
-5.08382779772e-14
2.5873509674e-10
-9.93266920943e-14
7.33190399281e-10
-7.88652141737e-14
1.17523939813e-09
4.28310506723e-14
1.58438027598e-09
2.65962503932e-13
1.96023024001e-09
5.6372657229e-13
2.30249244776e-09
8.91252228643e-13
2.6109353285e-09
1.19505550336e-12
2.88538010123e-09
1.42201688011e-12
3.12569247846e-09
1.52801212964e-12
3.33177534849e-09
1.48503798376e-12
3.50356258971e-09
1.28598889726e-12
3.64101347737e-09
9.45970986333e-13
3.744107494e-09
5.04568102862e-13
3.81284493581e-09
3.84718659454e-09
1.90110951082e-18
-5.8917076417e-14
2.58794013477e-10
-1.60995973984e-13
7.33292472087e-10
-2.52873741453e-13
1.17533127834e-09
-3.00873490112e-13
1.5844282791e-09
-2.90351169895e-13
1.96021971323e-09
-2.21215040747e-13
2.30242331219e-09
-1.06567429464e-13
2.61082068292e-09
2.90946040743e-14
2.88524443774e-09
1.58322559147e-13
3.12556325067e-09
2.56131538699e-13
3.33167753711e-09
3.04485184975e-13
3.50351423816e-09
2.95678585229e-13
3.64102228837e-09
2.32610990894e-13
3.74417056296e-09
1.31425255928e-13
3.81294612093e-09
3.84731801996e-09
1.55792156057e-18
-5.47535090849e-14
2.58848766441e-10
-1.65724635785e-13
7.33403444827e-10
-2.91938388721e-13
1.1754574962e-09
-4.03931464493e-13
1.58454027367e-09
-4.82996897583e-13
1.96029877455e-09
-5.19694067983e-13
2.3024600092e-09
-5.13225674322e-13
2.61081421361e-09
-4.6998808914e-13
2.88520119914e-09
-4.00433223205e-13
3.125493695e-09
-3.18622120497e-13
3.33159572257e-09
-2.36615979781e-13
3.50343223407e-09
-1.61691238052e-13
3.64094736273e-09
-9.69751996298e-14
3.74410585068e-09
-3.96897226272e-14
3.81288883398e-09
3.84727832613e-09
1.98457768942e-18
-4.56280710222e-14
2.588943931e-10
-1.45736923922e-13
7.3350355457e-10
-2.70188782804e-13
1.1755819481e-09
-3.93884169432e-13
1.58466396864e-09
-4.97471104878e-13
1.96040235923e-09
-5.70720753064e-13
2.30253325961e-09
-6.09665377034e-13
2.61085315647e-09
-6.11930824379e-13
2.88520346343e-09
-5.79925236095e-13
3.12546168859e-09
-5.19409121721e-13
3.33153520593e-09
-4.36143866855e-13
3.50334896911e-09
-3.36900686438e-13
3.64084811697e-09
-2.27418881713e-13
3.74399636978e-09
-1.11195805562e-13
3.8127726141e-09
3.84716712777e-09
1.08572470045e-18
-3.507673319e-14
2.58929468266e-10
-1.1616164907e-13
7.33584639262e-10
-2.22157337342e-13
1.17568794951e-09
-3.34066619663e-13
1.58477587845e-09
-4.36089511151e-13
1.96050438125e-09
-5.1655623927e-13
2.30261373016e-09
-5.68200363385e-13
2.61090479994e-09
-5.87910708074e-13
2.8852231744e-09
-5.76437598278e-13
3.12545021824e-09
-5.34137694587e-13
3.33149290499e-09
-4.6307313567e-13
3.50327790165e-09
-3.68497710787e-13
3.64075354649e-09
-2.56166350344e-13
3.74388403904e-09
-1.31234504643e-13
3.81264768209e-09
3.84703589109e-09
2.56328860824e-18
-2.5672578254e-14
2.58955140476e-10
-8.72876861348e-14
7.33646251787e-10
-1.70558539575e-13
1.17577122239e-09
-2.61727595183e-13
1.58486705044e-09
-3.48660149294e-13
1.96059131363e-09
-4.21604548734e-13
2.30268667455e-09
-4.73555580267e-13
2.61095675137e-09
-5.0035297088e-13
2.88524997113e-09
-4.98990829942e-13
3.12544886267e-09
-4.68640839006e-13
3.33146255149e-09
-4.11937619252e-13
3.50322120005e-09
-3.32223694128e-13
3.64067383109e-09
-2.33913056655e-13
3.74378572994e-09
-1.21719859012e-13
3.81253548988e-09
3.8469141669e-09
3.53185555876e-18
-1.80996814815e-14
2.58973240555e-10
-6.2871129756e-14
7.33691018981e-10
-1.24919334049e-13
1.17583327181e-09
-1.94641677142e-13
1.58493677025e-09
-2.63068573569e-13
1.96065974302e-09
-3.22479712698e-13
2.30274608893e-09
-3.66782058039e-13
2.61100105407e-09
-3.91678250423e-13
2.88527486775e-09
-3.94533595685e-13
3.12545171148e-09
-3.74266672929e-13
3.33144228911e-09
-3.31794111093e-13
3.50317872628e-09
-2.69448361683e-13
3.64061148524e-09
-1.90657444443e-13
3.7437069387e-09
-9.955787386e-14
3.81244439282e-09
3.84681460607e-09
1.95649540015e-18
-1.23359067509e-14
2.58985575387e-10
-4.36406030048e-14
7.33722325177e-10
-8.7922801049e-14
1.17587755624e-09
-1.38682247776e-13
1.58498752727e-09
-1.89551483174e-13
1.9607106116e-09
-2.34761200071e-13
2.30279129975e-09
-2.69494576331e-13
2.61103578377e-09
-2.90095542271e-13
2.88529547189e-09
-2.94209068696e-13
3.12545582472e-09
-2.80766864732e-13
3.331428845e-09
-2.50084280309e-13
3.50314804229e-09
-2.03721088695e-13
3.64056512237e-09
-1.44273811191e-13
3.7436474894e-09
-7.518893004e-14
3.81237530877e-09
3.84673941943e-09
2.9946144729e-18
-8.12988502975e-15
2.58993705126e-10
-2.92624721924e-14
7.33743456314e-10
-5.96898731519e-14
1.17590798418e-09
-9.51413717201e-14
1.58502298058e-09
-1.31253976237e-13
1.96074672403e-09
-1.63905547735e-13
2.30282395082e-09
-1.89509194289e-13
2.61106138739e-09
-2.0523666212e-13
2.88531119978e-09
-2.09167554243e-13
3.12545975521e-09
-2.00363416575e-13
3.33142003711e-09
-1.78907059193e-13
3.50312658248e-09
-1.4586124489e-13
3.64053207654e-09
-1.03161015205e-13
3.74360479264e-09
-5.35480139327e-14
3.81232569164e-09
3.84668587133e-09
-1.93984130858e-18
-5.16261040814e-15
2.58998867395e-10
-1.89114867616e-14
7.337572068e-10
-3.90482892845e-14
1.17592812032e-09
-6.2860704523e-14
1.58504678992e-09
-8.74504733751e-14
1.96077131573e-09
-1.09993454804e-13
2.30284649394e-09
-1.27946764386e-13
2.61107934225e-09
-1.39245737996e-13
2.88532250015e-09
-1.42442179674e-13
3.12546294998e-09
-1.36779148505e-13
3.3314143807e-09
-1.22268481739e-13
3.50311207264e-09
-9.96375053469e-14
3.64050944984e-09
-7.02984127183e-14
3.74357545694e-09
-3.63117974598e-14
3.81229170161e-09
3.84664956262e-09
1.19302613354e-18
-3.1373767952e-15
2.59002004912e-10
-1.17239082339e-14
7.33765794609e-10
-2.45267409671e-14
1.17594092204e-09
-3.9883456426e-14
1.58506215003e-09
-5.59532530208e-14
1.96078738453e-09
-7.0858053962e-14
2.30286140338e-09
-8.28806155294e-14
2.61109136653e-09
-9.05877568243e-14
2.88533020342e-09
-9.29417591442e-14
3.12546530239e-09
-8.93964916425e-14
3.33141083343e-09
-7.99303723845e-14
3.50310260619e-09
-6.50486327521e-14
3.64049456849e-09
-4.574968269e-14
3.74355615457e-09
-2.35014573547e-14
3.81226944769e-09
3.84662606319e-09
-6.05895943647e-19
-1.80097763917e-15
2.5900380556e-10
-6.89961007064e-15
7.33770896316e-10
-1.46660467346e-14
1.17594868378e-09
-2.41267065148e-14
1.5850716136e-09
-3.41604979009e-14
1.96079741851e-09
-4.3577086954e-14
2.30287082215e-09
-5.12653326613e-14
2.61109904912e-09
-5.62615297261e-14
2.8853352008e-09
-5.78769965897e-14
3.12546691777e-09
-5.5735414811e-14
3.3314086926e-09
-4.98169619388e-14
3.50309668746e-09
-4.04590669057e-14
3.64048521353e-09
-2.83425686789e-14
3.74354403754e-09
-1.4464917291e-14
3.81225557128e-09
3.84661159624e-09
-1.61136798931e-19
-9.48569422591e-16
2.59004755921e-10
-3.78044842683e-15
7.33773726479e-10
-8.20532259703e-15
1.17595311191e-09
-1.37128463469e-14
1.58507712057e-09
-1.96408984192e-14
1.96080335097e-09
-2.52820197688e-14
2.3028764651e-09
-2.99416057008e-14
2.61110370785e-09
-3.30106528276e-14
2.88533827351e-09
-3.40547732967e-14
3.12546795961e-09
-3.28233993459e-14
3.33140746309e-09
-2.93096094631e-14
3.50309317445e-09
-2.37374985895e-14
3.64047963951e-09
-1.65429811962e-14
3.74353684201e-09
-8.37572597231e-15
3.81224740282e-09
3.84660321982e-09
1.9623920664e-18
-4.29645284591e-16
2.59005186778e-10
-1.83838418451e-15
7.33775134431e-10
-4.14267531277e-15
1.17595541472e-09
-7.09634053901e-15
1.58508007284e-09
-1.03451184283e-14
1.96080660212e-09
-1.34917986953e-14
2.30287961072e-09
-1.61248697256e-14
2.61110634237e-09
-1.78941542531e-14
2.88534003907e-09
-1.85218929043e-14
3.12546858998e-09
-1.78698250207e-14
3.33140681062e-09
-1.5931534405e-14
3.50309123467e-09
-1.28447482053e-14
3.64047655335e-09
-8.88530794203e-15
3.74353288209e-09
-4.44963101108e-15
3.81224296638e-09
3.84659877006e-09
-2.76819315636e-20
-1.30872272641e-16
2.5900531734e-10
-6.93390545899e-16
7.33775694375e-10
-1.70462866135e-15
1.17595642746e-09
-3.07953979374e-15
1.5850814486e-09
-4.65331506815e-15
1.9608081778e-09
-6.2249486988e-15
2.30288117804e-09
-7.56364346383e-15
2.61110768466e-09
-8.48863090797e-15
2.88534095821e-09
-8.8395058975e-15
3.12546893781e-09
-8.53727250123e-15
3.33140650741e-09
-7.5842397215e-15
3.50309028378e-09
-6.06589631142e-15
3.64047503764e-09
-4.14269007714e-15
3.74353095836e-09
-2.03574673869e-15
3.81224086149e-09
3.84659673493e-09
1.28942262828e-18
2.64699789143e-17
2.59005290029e-10
-6.21205613559e-17
7.33775782394e-10
-3.32211064474e-16
1.17595669968e-09
-7.85327707132e-16
1.58508190109e-09
-1.36518585589e-15
1.96080875546e-09
-1.98271833071e-15
2.30288179581e-09
-2.53911646486e-15
2.61110823964e-09
-2.93619185508e-15
2.88534135543e-09
-3.10096245843e-15
3.12546910418e-09
-2.99827549258e-15
3.33140640493e-09
-2.63275527583e-15
3.50308991611e-09
-2.05057310726e-15
3.64047445406e-09
-1.33482494547e-15
3.74353024424e-09
-6.08274059323e-16
3.81224013596e-09
3.8465961267e-09
1.59151010808e-18
1.00049942877e-16
2.59005191232e-10
2.49119998226e-16
7.33775633709e-10
3.68032792861e-16
1.17595658234e-09
4.13674707266e-16
1.58508185362e-09
3.87569264239e-16
1.96080878298e-09
3.05876033705e-16
2.3028818781e-09
2.02049057407e-16
2.61110834392e-09
1.10809378313e-16
2.88534144671e-09
5.71820996402e-17
3.12546915439e-09
6.02095457509e-17
3.33140640318e-09
1.10939199212e-16
3.50308986986e-09
1.79434444244e-16
3.64047438601e-09
2.27389703106e-16
3.74353019603e-09
1.99580983573e-16
3.81224016488e-09
3.84659632587e-09
5.63953440528e-20
1.24396370711e-16
2.59005067425e-10
3.71288944034e-16
7.33775385475e-10
6.63537979389e-16
1.17595628887e-09
9.48783968717e-16
1.58508156911e-09
1.19228772042e-15
1.96080853944e-09
1.37935733729e-15
2.30288168938e-09
1.51434932271e-15
2.61110821215e-09
1.58980175176e-15
2.88534137166e-09
1.605740338e-15
3.12546914095e-09
1.54987253352e-15
3.33140645772e-09
1.42616831897e-15
3.50308999154e-09
1.23096988715e-15
3.64047458109e-09
9.44130382909e-16
3.7435304827e-09
5.46370045519e-16
3.81224056128e-09
3.84659687202e-09
-4.30390253243e-19
1.20965613041e-16
2.59004945726e-10
3.88368317512e-16
7.33775118807e-10
7.35669715698e-16
1.17595594466e-09
1.103016479e-15
1.58508120136e-09
1.45095826503e-15
1.96080819138e-09
1.74984141077e-15
2.30288139178e-09
1.97434773474e-15
2.61110798707e-09
2.11037363149e-15
2.88534123533e-09
2.14570195208e-15
3.12546910521e-09
2.07148622335e-15
3.33140653181e-09
1.88378844222e-15
3.50309018052e-09
1.57607759235e-15
3.64047488885e-09
1.15600142323e-15
3.74353090757e-09
6.22708308886e-16
3.81224109433e-09
3.84659749471e-09
1.68939094699e-18
1.08603068071e-16
2.5900483849e-10
3.53552922317e-16
7.33774869777e-10
6.87233663796e-16
1.17595561254e-09
1.05716494352e-15
1.58508083473e-09
1.41402604257e-15
1.96080783168e-09
1.72986989033e-15
2.30288107589e-09
1.97307275703e-15
2.61110774611e-09
2.11727060888e-15
2.88534109053e-09
2.15505821974e-15
3.12546906537e-09
2.08733663738e-15
3.3314066033e-09
1.88914430927e-15
3.50309037509e-09
1.56572478732e-15
3.64047521337e-09
1.12625474476e-15
3.74353134808e-09
5.91669737629e-16
3.81224162848e-09
3.84659808552e-09
3.95844696826e-19
8.86898072817e-17
2.59004749846e-10
2.99861844434e-16
7.33774659378e-10
5.86441437516e-16
1.17595532236e-09
9.15769407964e-16
1.58508050721e-09
1.24111286593e-15
1.96080750391e-09
1.53256336861e-15
2.30288078266e-09
1.76248652641e-15
2.61110751395e-09
1.90528621399e-15
2.88534094278e-09
1.95003721112e-15
3.12546902048e-09
1.87899818457e-15
3.33140667363e-09
1.69120946028e-15
3.50309056379e-09
1.39330795355e-15
3.64047551431e-09
9.91719089351e-16
3.74353174844e-09
5.15479630625e-16
3.81224210597e-09
3.84659860405e-09
2.98877346014e-18
6.90665768297e-17
2.59004680526e-10
2.385234467e-16
7.33774490085e-10
4.77789838415e-16
1.17595508596e-09
7.49130181654e-16
1.58508023595e-09
1.02578920897e-15
1.96080722963e-09
1.26871087627e-15
2.30288053218e-09
1.46714359743e-15
2.61110731508e-09
1.5911532566e-15
2.88534081692e-09
1.63306880285e-15
3.1254689816e-09
1.57181871501e-15
3.3314067299e-09
1.41452189568e-15
3.50309072112e-09
1.16348560439e-15
3.64047576832e-09
8.24862590864e-16
3.74353208387e-09
4.24882100185e-16
3.81224250258e-09
3.84659903246e-09
-1.07173977227e-18
5.03856353724e-17
2.59004627532e-10
1.85990603615e-16
7.33774359238e-10
3.70822177573e-16
1.17595490023e-09
5.8833246661e-16
1.58508002033e-09
8.05726346333e-16
1.9608070084e-09
1.0070525642e-15
2.30288033017e-09
1.17096240768e-15
2.61110715247e-09
1.27045541153e-15
2.88534071065e-09
1.31038472526e-15
3.12546894802e-09
1.26352180401e-15
3.33140677611e-09
1.13711957001e-15
3.50309084821e-09
9.31856483054e-16
3.64047597289e-09
6.60568568599e-16
3.74353235487e-09
3.39888551563e-16
3.81224282118e-09
3.84659937574e-09
1.50486386836e-18
3.95726441407e-17
2.59004588779e-10
1.38667063349e-16
7.337742607e-10
2.80807441471e-16
1.17595475846e-09
4.48339954301e-16
1.58507985312e-09
6.20033623455e-16
1.96080683644e-09
7.77490068922e-16
2.30288017126e-09
9.06004466921e-16
2.61110702444e-09
9.8800397298e-16
2.88534062766e-09
1.01872972123e-15
3.12546891998e-09
9.85991277805e-16
3.33140681055e-09
8.85709863169e-16
3.50309094722e-09
7.25220310605e-16
3.64047613218e-09
5.12706249438e-16
3.7435325649e-09
2.6617304358e-16
3.81224306864e-09
3.84659964169e-09
2.62377661746e-19
2.9766956652e-17
2.59004560255e-10
1.03968918753e-16
7.33774186216e-10
2.08296092416e-16
1.17595465154e-09
3.35241979349e-16
1.58507972832e-09
4.69054689745e-16
1.96080670739e-09
5.88196009593e-16
2.30288005047e-09
6.87100694165e-16
2.61110692565e-09
7.51450768663e-16
2.88534056295e-09
7.77703679283e-16
3.12546889874e-09
7.5433420809e-16
3.3314068369e-09
6.76444006765e-16
3.50309102325e-09
5.53615054342e-16
3.64047625408e-09
3.91796291929e-16
3.74353272726e-09
2.05310747531e-16
3.81224325857e-09
3.84659984546e-09
2.09337471836e-18
2.03170271381e-17
2.59004539109e-10
7.32626800449e-17
7.33774133463e-10
1.55308818425e-16
1.17595457338e-09
2.48200254795e-16
1.58507963491e-09
3.45627595147e-16
1.96080660912e-09
4.40151742666e-16
2.30287995922e-09
5.12065381513e-16
2.61110685103e-09
5.63188631523e-16
2.8853405138e-09
5.83224525149e-16
3.12546888068e-09
5.6710654478e-16
3.33140685492e-09
5.07638816951e-16
3.5030910783e-09
4.18455194171e-16
3.64047634496e-09
2.94906754212e-16
3.7435328485e-09
1.55896054065e-16
3.81224340123e-09
3.84659999884e-09
5.09794667059e-18
1.4652302287e-17
2.59004524663e-10
5.23675075316e-17
7.3377409417e-10
1.14144824354e-16
1.17595451596e-09
1.83390859768e-16
1.58507956582e-09
2.535233383e-16
1.96080653616e-09
3.24194203107e-16
2.30287989123e-09
3.80220807977e-16
2.61110679456e-09
4.17244339104e-16
2.88534047581e-09
4.34010312142e-16
3.12546886603e-09
4.22848264558e-16
3.33140686766e-09
3.78184827921e-16
3.50309111992e-09
3.09842879605e-16
3.64047641298e-09
2.19212561808e-16
3.74353293768e-09
1.1316132062e-16
3.81224350587e-09
3.8466001132e-09
8.73595289871e-19
1.09620473472e-17
2.5900451438e-10
3.84009435609e-17
7.33774067342e-10
8.38727429402e-17
1.17595447492e-09
1.32244000715e-16
1.58507951603e-09
1.85003305528e-16
1.9608064828e-09
2.36923469712e-16
2.30287984031e-09
2.79028147821e-16
2.61110675228e-09
3.06478428099e-16
2.88534044687e-09
3.19667171866e-16
3.12546885565e-09
3.12593134692e-16
3.33140687732e-09
2.78933063565e-16
3.50309114976e-09
2.30029727354e-16
3.64047646291e-09
1.64883241363e-16
3.74353300485e-09
8.65410535812e-17
3.81224358456e-09
3.84660019609e-09
3.49429745885e-19
7.79230429404e-18
2.59004505555e-10
2.55542920793e-17
7.33774045234e-10
5.94229974419e-17
1.17595444412e-09
9.59795535313e-17
1.58507947888e-09
1.35006466074e-16
1.96080644383e-09
1.74027218712e-16
2.30287980288e-09
2.0329107309e-16
2.61110672093e-09
2.26911724452e-16
2.88534042616e-09
2.36361644974e-16
3.12546884674e-09
2.26979323313e-16
3.33140688324e-09
2.05756278009e-16
3.50309117062e-09
1.67264110153e-16
3.64047649871e-09
1.19128133847e-16
3.74353305379e-09
6.30486650786e-17
3.81224364239e-09
3.84660025853e-09
1.70331432678e-18
5.12625318753e-18
2.59004499831e-10
2.17041938184e-17
7.33774030263e-10
4.35430445231e-17
1.17595442161e-09
6.72360729943e-17
1.58507945175e-09
9.85090949047e-17
1.96080641529e-09
1.26344468856e-16
2.3028797766e-09
1.50155457044e-16
2.6111066987e-09
1.6408206326e-16
2.88534040918e-09
1.72608663957e-16
3.12546883989e-09
1.6506881639e-16
3.33140688697e-09
1.51701727834e-16
3.50309118754e-09
1.27419568255e-16
3.64047652516e-09
8.84305013347e-17
3.74353308812e-09
4.50564336921e-17
3.81224368378e-09
3.84660030365e-09
-1.00111505341e-18
4.30673329353e-18
2.59004495694e-10
1.69443751015e-17
7.33774019348e-10
3.10236358428e-17
1.17595440407e-09
4.87454196769e-17
1.58507943103e-09
7.11585827362e-17
1.96080639302e-09
9.15212469982e-17
2.30287975569e-09
1.10341609796e-16
2.6111066818e-09
1.25135541922e-16
2.88534039902e-09
1.26931279419e-16
3.12546883575e-09
1.28247341727e-16
3.33140689012e-09
1.12147090595e-16
3.50309119652e-09
9.28310637531e-17
3.64047654335e-09
6.54772715674e-17
3.7435331142e-09
3.25856410816e-17
3.81224371482e-09
3.84660033764e-09
1.97800281212e-18
3.92170041933e-18
2.59004492897e-10
1.29490368023e-17
7.33774011401e-10
2.45574973408e-17
1.17595439309e-09
3.74335335362e-17
1.58507941679e-09
5.51788420768e-17
1.96080637884e-09
6.98715798504e-17
2.30287974118e-09
8.07380696967e-17
2.611106669e-09
9.13955121925e-17
2.88534038929e-09
9.44802637742e-17
3.12546883084e-09
9.19548893066e-17
3.33140689116e-09
8.38689796836e-17
3.50309120548e-09
6.93372752502e-17
3.64047655825e-09
4.92595796837e-17
3.74353313364e-09
2.53319090072e-17
3.8122437373e-09
3.84660036182e-09
-6.86989618676e-19
2.43915057965e-18
2.59004490793e-10
9.87544251627e-18
7.33774005809e-10
1.62251307917e-17
1.17595438371e-09
3.10623225402e-17
1.58507940623e-09
4.06874980346e-17
1.96080636704e-09
5.19213956935e-17
2.30287973094e-09
6.27264174354e-17
2.61110665988e-09
6.42082245693e-17
2.88534038253e-09
6.88607156198e-17
3.1254688291e-09
6.86066267425e-17
3.33140689482e-09
6.26008110571e-17
3.50309121267e-09
5.34284768554e-17
3.64047657002e-09
3.57893407483e-17
3.74353314864e-09
2.00378716767e-17
3.81224375543e-09
3.84660038075e-09
-8.80214985066e-19
1.80710105961e-18
2.59004488832e-10
4.63361595077e-18
7.33774000834e-10
1.40136285529e-17
1.17595437814e-09
2.22771573807e-17
1.5850793992e-09
3.1290494888e-17
1.96080635927e-09
3.58306499464e-17
2.30287972199e-09
4.55897002793e-17
2.61110665329e-09
4.99949925665e-17
2.88534037796e-09
5.44279897599e-17
3.12546882627e-09
5.17986562384e-17
3.33140689486e-09
4.9226875131e-17
3.50309121652e-09
3.98401892157e-17
3.64047657768e-09
2.81416544764e-17
3.74353315974e-09
1.33752130377e-17
3.81224376833e-09
3.84660039527e-09
-9.52366574589e-19
6.27493829192e-19
2.59004488205e-10
5.71425842344e-18
7.33773998585e-10
1.23047074417e-17
1.17595437414e-09
1.87933670183e-17
1.58507939327e-09
2.60819727009e-17
1.96080635216e-09
2.88906866716e-17
2.30287971489e-09
3.06413459025e-17
2.6111066466e-09
3.65982655936e-17
2.88534037373e-09
3.94401502526e-17
3.12546882446e-09
3.92220648212e-17
3.33140689591e-09
3.95086063303e-17
3.5030912201e-09
3.05165153799e-17
3.64047658351e-09
2.21135115922e-17
3.74353316793e-09
1.30088514823e-17
3.81224377785e-09
3.84660040581e-09
1.72328469872e-18
8.40108050793e-19
2.59004487014e-10
3.80542906021e-18
7.33773996009e-10
9.52142568148e-18
1.17595437005e-09
1.1375222537e-17
1.58507938964e-09
1.65804208499e-17
1.96080634796e-09
2.1293343401e-17
2.30287971122e-09
2.4808206926e-17
2.61110664327e-09
2.71678273557e-17
2.88534037137e-09
3.24054978689e-17
3.12546882404e-09
2.8686382753e-17
3.33140689655e-09
3.1929618177e-17
3.50309122317e-09
2.5424867286e-17
3.64047658709e-09
1.5915923039e-17
3.74353317218e-09
9.47669724855e-18
3.81224378495e-09
3.8466004134e-09
2.30535360141e-18
4.455103445e-19
2.59004486936e-10
5.11372004786e-18
7.33773994794e-10
6.91047937708e-18
1.17595436761e-09
7.25704417829e-18
1.58507938599e-09
1.06631688391e-17
1.96080634446e-09
1.56275426481e-17
2.30287970775e-09
2.07834828832e-17
2.61110664091e-09
2.27503485368e-17
2.88534036979e-09
2.28053518823e-17
3.12546882315e-09
2.2101223597e-17
3.33140689734e-09
2.03403369672e-17
3.50309122542e-09
1.8382946234e-17
3.64047659178e-09
1.46926567927e-17
3.74353317909e-09
6.91148823123e-18
3.81224379099e-09
3.84660042053e-09
-5.85503118943e-19
2.56919091604e-18
2.59004485257e-10
4.01517615817e-18
7.33773991548e-10
5.64930552855e-18
1.17595436365e-09
6.37694047699e-18
1.58507938181e-09
6.41176952644e-18
1.96080633953e-09
1.14487739343e-17
2.30287970485e-09
1.39429114556e-17
2.61110663822e-09
1.66465600638e-17
2.88534036819e-09
1.81675781731e-17
3.12546882234e-09
1.76929069146e-17
3.33140689767e-09
1.77774230263e-17
3.5030912268e-09
1.26559377063e-17
3.64047659416e-09
1.02724942318e-17
3.74353318231e-09
8.12665791173e-18
3.81224379455e-09
3.84660042352e-09
1.60551565566e-18
2.8504682274e-18
2.59004486412e-10
2.68043595178e-18
7.33773992095e-10
6.48111556984e-18
1.17595436341e-09