/*--------------------------------*- C++ -*----------------------------------*\
| =========                 |                                                 |
| \\      /  F ield         | OpenFOAM: The Open Source CFD Toolbox           |
|  \\    /   O peration     | Version:  dev                                   |
|   \\  /    A nd           | Web:      www.OpenFOAM.org                      |
|    \\/     M anipulation  |                                                 |
\*---------------------------------------------------------------------------*/
FoamFile
{
    version     2.0;
    format      ascii;
    class       volScalarField;
    location    "0";
    object      moment.2.populationBalance;
}
// * * * * * * * * * * * * * * * * * * * * * * * * * * * * * * * * * * * * * //

dimensions      [0 -1 0 0 0 0 0];

internalField   nonuniform List<scalar> 
100
(
1.58404e-07
1.397124e-06
3.8025e-06
7.300804e-06
1.1819844e-05
1.7288964e-05
2.3639044e-05
3.08025e-05
3.8713284e-05
4.7306884e-05
5.6520324e-05
6.6292164e-05
7.65625e-05
8.7272964e-05
9.8366724e-05
0.000109788484
0.000121484484
0.0001334025
0.000145491844
0.000157703364
0.000169989444
0.000182304004
0.0001946025
0.000206841924
0.000218980804
0.000232101861975
0.00025263322
0.000280982253086
0.000316424291605
0.00035825562
0.00040579347679
0.000458376054568
0.0005153625
0.000576169025414
0.000642236513642
0.000718007841879
0.000816024308975
0.000964381226111
0.001214599533
0.0016490903766
0.00238694627266
0.00358720310412
0.0054489935474
0.00820824515363
0.0121308181476
0.0175022339363
0.0246143939427
0.033749904722
0.0451647924009
0.0590705003549
0.0756161193091
0.0948718035785
0.116814287577
0.141315339884
0.168133884509
0.196912386354
0.227177945474
0.258348377311
0.289743378053
0.320600689894
0.350096994169
0.377373075265
0.401562618615
0.421823835977
0.437372954466
0.447518466218
0.45169491712
0.451192100455
0.44900199465
0.445203089355
0.439815947557
0.432869899306
0.424403041713
0.414462238952
0.403103122259
0.390390089933
0.376396307335
0.361203706887
0.344902988075
0.327593617446
0.30938382861
0.290390622239
0.270739766066
0.250565794889
0.230012010566
0.209230482017
0.188382045227
0.16763630324
0.147171626165
0.12717515117
0.107842782489
0.089379191415
0.0719978163055
0.0559208625791
0.041379302717
0.0286128762625
0.0178700898213
0.00940821706128
0.00349329871254
0.000400142567466
)
;

boundaryField
{
    left
    {
        type            cyclic;
    }
    right
    {
        type            cyclic;
    }
    frontAndBack
    {
        type            empty;
    }
}


// ************************************************************************* //
