/*--------------------------------*- C++ -*----------------------------------*\
| =========                 |                                                 |
| \\      /  F ield         | OpenFOAM: The Open Source CFD Toolbox           |
|  \\    /   O peration     | Version:  dev                                   |
|   \\  /    A nd           | Web:      www.OpenFOAM.org                      |
|    \\/     M anipulation  |                                                 |
\*---------------------------------------------------------------------------*/
FoamFile
{
    version     2.0;
    format      ascii;
    class       volScalarField;
    location    "0";
    object      moment.3.populationBalance;
}
// * * * * * * * * * * * * * * * * * * * * * * * * * * * * * * * * * * * * * //

dimensions      [0 0 0 0 0 0 0];

internalField   nonuniform List<scalar> 
100
(
3.16808e-09
2.794248e-08
7.605e-08
1.4601608e-07
2.3639688e-07
3.4577928e-07
4.7278088e-07
6.1605e-07
7.7426568e-07
9.4613768e-07
1.13040648e-06
1.32584328e-06
1.53125e-06
1.74545928e-06
1.96733448e-06
2.19576968e-06
2.42968968e-06
2.66805e-06
2.90983688e-06
3.15406728e-06
3.39978888e-06
3.64608008e-06
3.89205e-06
4.13683848e-06
4.37961608e-06
4.66449039901e-06
5.24935432e-06
6.15124012346e-06
7.3418675842e-06
8.79376392e-06
1.04802637916e-05
1.23755093027e-05
1.445445e-05
1.66936449035e-05
1.91205188989e-05
2.19074954045e-05
2.57887542108e-05
3.31036277424e-05
4.98325371853e-05
8.8892411415e-05
0.000174718359743
0.000348901952378
0.000676402656788
0.0012516199142
0.00220343688995
0.00369825571761
0.00594006369878
0.0091667106526
0.0136418326253
0.0196422054864
0.0274407229143
0.037285631078
0.0493770796582
0.0638424298175
0.0807120620007
0.0998976228404
0.121174720133
0.144172004199
0.168368357063
0.193099550068
0.217575236117
0.240906533323
0.26214375848
0.280323114801
0.29452036815
0.303908804171
0.307818093584
0.307515683241
0.306039604053
0.303465708085
0.299807964248
0.295086326527
0.289326733972
0.282561110708
0.274827365927
0.266169393893
0.25663707394
0.246286270471
0.235178832962
0.223382595956
0.210971379068
0.198024986983
0.184629209457
0.170875821314
0.156862582452
0.142693237834
0.128477517499
0.114331136552
0.10037579517
0.0867391786001
0.0735549571594
0.0609627862354
0.0491083062859
0.0381431428388
0.0282249064923
0.0195171929149
0.0121895828454
0.00641764209254
0.0023829215357
0.000272957124307
)
;

boundaryField
{
    left
    {
        type            cyclic;
    }
    right
    {
        type            cyclic;
    }
    frontAndBack
    {
        type            empty;
    }
}


// ************************************************************************* //
