/*--------------------------------*- C++ -*----------------------------------*\
| =========                 |                                                 |
| \\      /  F ield         | OpenFOAM: The Open Source CFD Toolbox           |
|  \\    /   O peration     | Version:  dev                                   |
|   \\  /    A nd           | Web:      www.OpenFOAM.org                      |
|    \\/     M anipulation  |                                                 |
\*---------------------------------------------------------------------------*/
FoamFile
{
    version     2.0;
    format      ascii;
    class       volScalarField;
    location    "0";
    object      moment.4.populationBalance;
}
// * * * * * * * * * * * * * * * * * * * * * * * * * * * * * * * * * * * * * //

dimensions      [0 1 0 0 0 0 0];

internalField   nonuniform List<scalar> 
5000
(
2.5594880256e-14
2.30261780736e-13
6.3936016e-13
1.25264445466e-12
2.06986919962e-12
3.0907890281e-12
4.31515867162e-12
5.74273296e-12
7.37326682138e-12
9.20651528218e-12
1.12422334671e-11
1.34801765993e-11
1.59201e-11
1.85617590889e-11
2.14049093839e-11
2.44493065014e-11
2.76947061558e-11
3.114086416e-11
3.47875364252e-11
3.86344789609e-11
4.26814478748e-11
4.69281993731e-11
5.137448976e-11
5.60200754383e-11
6.08647129091e-11
6.59081587715e-11
7.11501697231e-11
7.659050256e-11
8.22289141763e-11
8.80651615644e-11
9.40990018153e-11
1.00330192118e-10
1.0675848976e-10
1.13383652127e-10
1.20205436703e-10
1.2722360107e-10
1.3443790291e-10
1.418481e-10
1.49453950218e-10
1.57255211541e-10
1.65251642041e-10
1.7344299989e-10
1.8182904336e-10
1.90409530819e-10
1.99184220734e-10
2.0815287167e-10
2.17315242291e-10
2.2667109136e-10
2.36220177736e-10
2.45962260378e-10
2.55897098343e-10
2.66024450786e-10
2.7634407696e-10
2.86855736218e-10
2.97559188009e-10
3.08454191882e-10
3.19540507484e-10
3.3081789456e-10
3.42286112953e-10
3.53944922604e-10
3.65794083554e-10
3.7783335594e-10
3.900625e-10
4.02481276068e-10
4.15089444578e-10
4.2788676606e-10
4.40873001145e-10
4.5404791056e-10
4.67411255132e-10
4.80962795786e-10
4.94702293545e-10
5.0862950953e-10
5.2274420496e-10
5.37046141154e-10
5.51535079527e-10
5.66210781594e-10
5.81073008968e-10
5.9612152336e-10
6.11356086579e-10
6.26776460534e-10
6.4238240723e-10
6.58173688771e-10
6.7415006736e-10
6.90311305298e-10
7.06657164985e-10
7.23187408917e-10
7.3990179969e-10
7.568001e-10
7.73882072638e-10
7.91147480494e-10
8.08596086559e-10
8.26227653919e-10
8.4404194576e-10
8.62038725366e-10
8.80217756119e-10
8.985788015e-10
9.17121625088e-10
9.3584599056e-10
9.54751661691e-10
9.73838402355e-10
9.93105976525e-10
1.01255414827e-09
1.03218268176e-09
1.05199134126e-09
1.07197989114e-09
1.09214809586e-09
1.11249571998e-09
1.13302252816e-09
1.15372828516e-09
1.17461275585e-09
1.19567570516e-09
1.21691689816e-09
1.2383361e-09
1.25993307593e-09
1.28170759129e-09
1.30365941154e-09
1.32578830221e-09
1.34809402896e-09
1.37057635752e-09
1.39323505373e-09
1.41606988354e-09
1.43908061297e-09
1.46226700816e-09
1.48562883535e-09
1.50916586086e-09
1.53287785114e-09
1.55676457269e-09
1.58082579216e-09
1.60506127626e-09
1.62947079182e-09
1.65405410576e-09
1.6788109851e-09
1.70374119696e-09
1.72884450855e-09
1.75412068719e-09
1.77956950028e-09
1.80519071535e-09
1.8309841e-09
1.85694942194e-09
1.88308644897e-09
1.909394949e-09
1.93587469003e-09
1.96252544016e-09
1.98934696759e-09
2.01633904062e-09
2.04350142765e-09
2.07083389717e-09
2.09833621776e-09
2.12600815813e-09
2.15384948705e-09
2.18185997343e-09
2.21003938624e-09
2.23838749456e-09
2.26690406758e-09
2.29558887459e-09
2.32444168495e-09
2.35346226815e-09
2.38265039376e-09
2.41200583145e-09
2.44152835101e-09
2.47121772229e-09
2.50107371526e-09
2.5310961e-09
2.56128464667e-09
2.59163912552e-09
2.62215930694e-09
2.65284496136e-09
2.68369585936e-09
2.71471177159e-09
2.7458924688e-09
2.77723772185e-09
2.80874730168e-09
2.84042097936e-09
2.87225852602e-09
2.90425971292e-09
2.9364243114e-09
2.9687520929e-09
3.00124282896e-09
3.03389629123e-09
3.06671225143e-09
3.09969048142e-09
3.13283075312e-09
3.16613283856e-09
3.19959650988e-09
3.23322153931e-09
3.26700769917e-09
3.30095476189e-09
3.3350625e-09
3.36933068612e-09
3.40375909296e-09
3.43834749336e-09
3.47309566022e-09
3.50800336656e-09
3.5430703855e-09
3.57829649025e-09
3.61368145412e-09
3.64922505052e-09
3.68492705296e-09
3.72078723504e-09
3.75680537047e-09
3.79298123305e-09
3.82931459668e-09
3.86580523536e-09
3.90245292319e-09
3.93925743436e-09
3.97621854317e-09
4.013336024e-09
4.05060965136e-09
4.08803919983e-09
4.12562444409e-09
4.16336515893e-09
4.20126111924e-09
4.2393121e-09
4.27751787629e-09
4.31587822328e-09
4.35439291625e-09
4.39306173059e-09
4.43188444176e-09
4.47086082533e-09
4.50999065698e-09
4.54927371248e-09
4.58870976768e-09
4.62829859856e-09
4.66803998118e-09
4.7079336917e-09
4.74797950638e-09
4.78817720158e-09
4.82852655376e-09
4.86902733947e-09
4.90967933536e-09
4.95048231819e-09
4.99143606481e-09
5.03254035216e-09
5.07379495729e-09
5.11519965735e-09
5.15675422958e-09
5.19845845131e-09
5.2403121e-09
5.28231495318e-09
5.32446678848e-09
5.36676738363e-09
5.40921651649e-09
5.45181396496e-09
5.49455950709e-09
5.537452921e-09
5.58049398491e-09
5.62368247716e-09
5.66701817616e-09
5.71050086044e-09
5.75413030861e-09
5.79790629939e-09
5.8418286116e-09
5.88589702416e-09
5.93011131607e-09
5.97447126645e-09
6.0189766545e-09
6.06362725954e-09
6.10842286096e-09
6.15336323828e-09
6.19844817109e-09
6.2436774391e-09
6.2890508221e-09
6.3345681e-09
6.38022905278e-09
6.42603346055e-09
6.47198110349e-09
6.5180717619e-09
6.56430521616e-09
6.61068124676e-09
6.65719963429e-09
6.70386015943e-09
6.75066260296e-09
6.79760674576e-09
6.84469236881e-09
6.8919192532e-09
6.93928718008e-09
6.98679593075e-09
7.03444528656e-09
7.08223502899e-09
7.13016493961e-09
7.17823480009e-09
7.22644439218e-09
7.27479349776e-09
7.32328189878e-09
7.37190937731e-09
7.4206757155e-09
7.46958069561e-09
7.5186241e-09
7.56780571111e-09
7.61712531151e-09
7.66658268383e-09
7.71617761083e-09
7.76590987536e-09
7.81577926035e-09
7.86578554886e-09
7.91592852402e-09
7.96620796908e-09
8.01662366736e-09
8.06717540231e-09
8.11786295747e-09
8.16868611645e-09
8.21964466301e-09
8.27073838096e-09
8.32196705423e-09
8.37333046686e-09
8.42482840295e-09
8.47646064675e-09
8.52822698256e-09
8.58012719481e-09
8.63216106801e-09
8.68432838679e-09
8.73662893584e-09
8.7890625e-09
8.84162886416e-09
8.89432781335e-09
8.94715913265e-09
9.00012260729e-09
9.05321802256e-09
9.10644516387e-09
9.15980381671e-09
9.2132937667e-09
9.26691479951e-09
9.32066670096e-09
9.37454925693e-09
9.42856225341e-09
9.48270547651e-09
9.53697871239e-09
9.59138174736e-09
9.6459143678e-09
9.70057636018e-09
9.7553675111e-09
9.81028760723e-09
9.86533643536e-09
9.92051378235e-09
9.97581943519e-09
1.00312531809e-08
1.00868148068e-08
1.01425041e-08
1.01983208479e-08
1.02542648381e-08
1.0310335858e-08
1.03665336953e-08
1.04228581378e-08
1.04793089733e-08
1.05358859898e-08
1.05925889755e-08
1.06494177183e-08
1.07063720066e-08
1.07634516287e-08
1.0820656373e-08
1.08779860282e-08
1.09354403829e-08
1.09930192258e-08
1.10507223457e-08
1.11085495316e-08
1.11665005725e-08
1.12245752576e-08
1.12827733762e-08
1.13410947174e-08
1.13995390709e-08
1.1458106226e-08
1.15167959725e-08
1.15756081e-08
1.16345423984e-08
1.16935986577e-08
1.17527766677e-08
1.18120762188e-08
1.1871497101e-08
1.19310391047e-08
1.19907020203e-08
1.20504856383e-08
1.21103897494e-08
1.21704141442e-08
1.22305586135e-08
1.22908229484e-08
1.23512069396e-08
1.24117103785e-08
1.24723330562e-08
1.25330747639e-08
1.25939352931e-08
1.26549144352e-08
1.2716011982e-08
1.2777227725e-08
1.2838561456e-08
1.2900012967e-08
1.29615820499e-08
1.30232684969e-08
1.30850721e-08
1.31469926516e-08
1.32090299441e-08
1.327118377e-08
1.33334539218e-08
1.33958401922e-08
1.34583423739e-08
1.352096026e-08
1.35836936432e-08
1.36465423167e-08
1.37095060738e-08
1.37725847075e-08
1.38357780113e-08
1.38990857787e-08
1.39625078033e-08
1.40260438786e-08
1.40896937984e-08
1.41534573566e-08
1.42173343472e-08
1.42813245642e-08
1.43454278018e-08
1.44096438541e-08
1.44739725156e-08
1.45384135807e-08
1.4602966844e-08
1.46676321e-08
1.47324091436e-08
1.47972977695e-08
1.48622977727e-08
1.49274089483e-08
1.49926310914e-08
1.50579639971e-08
1.51234074609e-08
1.51889612782e-08
1.52546252445e-08
1.53203991554e-08
1.53862828066e-08
1.5452275994e-08
1.55183785135e-08
1.55845901611e-08
1.5650910733e-08
1.57173400252e-08
1.57838778343e-08
1.58505239565e-08
1.59172781884e-08
1.59841403266e-08
1.60511101677e-08
1.61181875087e-08
1.61853721464e-08
1.62526638778e-08
1.63200625e-08
1.63875678102e-08
1.64551796057e-08
1.65228976839e-08
1.65907218424e-08
1.66586518786e-08
1.67266875902e-08
1.67948287752e-08
1.68630752313e-08
1.69314267565e-08
1.6999883149e-08
1.70684442068e-08
1.71371097284e-08
1.7205879512e-08
1.72747533561e-08
1.73437310594e-08
1.74128124204e-08
1.7481997238e-08
1.7551285311e-08
1.76206764385e-08
1.76901704194e-08
1.77597670529e-08
1.78294661383e-08
1.7899267475e-08
1.79691708623e-08
1.80391761e-08
1.81092829876e-08
1.81794913248e-08
1.82498009116e-08
1.83202115479e-08
1.83907230338e-08
1.84613351693e-08
1.85320477547e-08
1.86028605904e-08
1.86737734769e-08
1.87447862146e-08
1.88158986042e-08
1.88871104464e-08
1.89584215421e-08
1.90298316922e-08
1.91013406978e-08
1.91729483599e-08
1.92446544798e-08
1.93164588589e-08
1.93883612985e-08
1.94603616002e-08
1.95324595655e-08
1.96046549964e-08
1.96769476944e-08
1.97493374616e-08
1.98218241e-08
1.98944074117e-08
1.99670871988e-08
2.00398632638e-08
2.0112735409e-08
2.0185703437e-08
2.02587671502e-08
2.03319263515e-08
2.04051808437e-08
2.04785304295e-08
2.05519749122e-08
2.06255140946e-08
2.06991477801e-08
2.07728757719e-08
2.08466978734e-08
2.09206138882e-08
2.09946236197e-08
2.10687268717e-08
2.1142923448e-08
2.12172131524e-08
2.1291595789e-08
2.13660711617e-08
2.14406390749e-08
2.15152993327e-08
2.15900517396e-08
2.16648961e-08
2.17398322185e-08
2.18148598997e-08
2.18899789485e-08
2.19651891696e-08
2.20404903682e-08
2.21158823491e-08
2.21913649176e-08
2.2266937879e-08
2.23426010385e-08
2.24183542018e-08
2.24941971742e-08
2.25701297615e-08
2.26461517694e-08
2.27222630038e-08
2.27984632706e-08
2.28747523758e-08
2.29511301257e-08
2.30275963264e-08
2.31041507842e-08
2.31807933058e-08
2.32575236974e-08
2.33343417659e-08
2.34112473179e-08
2.34882401603e-08
2.35653201e-08
2.3642486944e-08
2.37197404995e-08
2.37970805736e-08
2.38745069738e-08
2.39520195074e-08
2.40296179819e-08
2.4107302205e-08
2.41850719844e-08
2.42629271279e-08
2.43408674434e-08
2.44188927389e-08
2.44970028226e-08
2.45751975026e-08
2.46534765872e-08
2.4731839885e-08
2.48102872042e-08
2.48888183537e-08
2.4967433142e-08
2.5046131378e-08
2.51249128706e-08
2.52037774287e-08
2.52827248614e-08
2.5361754978e-08
2.54408675877e-08
2.55200625e-08
2.55993395243e-08
2.56786984701e-08
2.57581391472e-08
2.58376613654e-08
2.59172649346e-08
2.59969496646e-08
2.60767153656e-08
2.61565618478e-08
2.62364889215e-08
2.6316496397e-08
2.63965840847e-08
2.64767517953e-08
2.65569993394e-08
2.66373265278e-08
2.67177331714e-08
2.6798219081e-08
2.68787840678e-08
2.6959427943e-08
2.70401505177e-08
2.71209516034e-08
2.72018310114e-08
2.72827885534e-08
2.7363824041e-08
2.74449372859e-08
2.75261281e-08
2.76073962952e-08
2.76887416836e-08
2.77701640773e-08
2.78516632886e-08
2.79332391298e-08
2.80148914132e-08
2.80966199516e-08
2.81784245574e-08
2.82603050435e-08
2.83422612226e-08
2.84242929076e-08
2.85063999117e-08
2.85885820479e-08
2.86708391295e-08
2.87531709698e-08
2.88355773821e-08
2.891805818e-08
2.90006131772e-08
2.90832421873e-08
2.91659450242e-08
2.92487215017e-08
2.93315714339e-08
2.94144946348e-08
2.94974909188e-08
2.95805601e-08
2.96637019929e-08
2.9746916412e-08
2.98302031719e-08
2.99135620873e-08
2.9996992973e-08
3.00804956438e-08
3.01640699148e-08
3.0247715601e-08
3.03314325177e-08
3.04152204802e-08
3.04990793037e-08
3.05830088038e-08
3.06670087962e-08
3.07510790963e-08
3.08352195202e-08
3.09194298835e-08
3.10037100023e-08
3.10880596927e-08
3.11724787708e-08
3.1256967053e-08
3.13415243555e-08
3.14261504948e-08
3.15108452875e-08
3.15956085504e-08
3.16804401e-08
3.17653397533e-08
3.18503073273e-08
3.1935342639e-08
3.20204455055e-08
3.21056157442e-08
3.21908531723e-08
3.22761576073e-08
3.23615288668e-08
3.24469667683e-08
3.25324711298e-08
3.26180417689e-08
3.27036785036e-08
3.27893811521e-08
3.28751495323e-08
3.29609834626e-08
3.30468827612e-08
3.31328472467e-08
3.32188767375e-08
3.33049710523e-08
3.33911300098e-08
3.34773534288e-08
3.35636411282e-08
3.36499929272e-08
3.37364086447e-08
3.38228881e-08
3.39094311125e-08
3.39960375015e-08
3.40827070865e-08
3.41694396873e-08
3.42562351234e-08
3.43430932147e-08
3.44300137811e-08
3.45169966426e-08
3.46040416193e-08
3.46911485314e-08
3.47783171992e-08
3.48655474431e-08
3.49528390836e-08
3.50401919413e-08
3.5127605837e-08
3.52150805913e-08
3.53026160251e-08
3.53902119596e-08
3.54778682156e-08
3.55655846146e-08
3.56533609776e-08
3.57411971261e-08
3.58290928816e-08
3.59170480657e-08
3.60050625e-08
3.60931360063e-08
3.61812684065e-08
3.62694595225e-08
3.63577091765e-08
3.64460171906e-08
3.6534383387e-08
3.66228075881e-08
3.67112896164e-08
3.67998292945e-08
3.6888426445e-08
3.69770808906e-08
3.70657924542e-08
3.71545609589e-08
3.72433862275e-08
3.73322680834e-08
3.74212063496e-08
3.75102008497e-08
3.75992514069e-08
3.76883578449e-08
3.77775199874e-08
3.78667376579e-08
3.79560106805e-08
3.8045338879e-08
3.81347220775e-08
3.82241601e-08
3.83136527709e-08
3.84031999144e-08
3.8492801355e-08
3.85824569173e-08
3.86721664258e-08
3.87619297052e-08
3.88517465804e-08
3.89416168764e-08
3.9031540418e-08
3.91215170306e-08
3.92115465391e-08
3.93016287691e-08
3.93917635458e-08
3.94819506948e-08
3.95721900418e-08
3.96624814123e-08
3.97528246323e-08
3.98432195275e-08
3.99336659241e-08
4.00241636482e-08
4.01147125258e-08
4.02053123834e-08
4.02959630472e-08
4.03866643439e-08
4.04774161e-08
4.05682181422e-08
4.06590702972e-08
4.0749972392e-08
4.08409242536e-08
4.0931925709e-08
4.10229765854e-08
4.11140767101e-08
4.12052259104e-08
4.12964240139e-08
4.13876708482e-08
4.14789662408e-08
4.15703100196e-08
4.16617020124e-08
4.17531420473e-08
4.18446299522e-08
4.19361655553e-08
4.20277486849e-08
4.21193791694e-08
4.22110568373e-08
4.2302781517e-08
4.23945530372e-08
4.24863712267e-08
4.25782359144e-08
4.26701469291e-08
4.27621041e-08
4.28541072562e-08
4.29461562269e-08
4.30382508415e-08
4.31303909294e-08
4.32225763202e-08
4.33148068434e-08
4.34070823289e-08
4.34994026065e-08
4.35917675061e-08
4.36841768578e-08
4.37766304916e-08
4.38691282378e-08
4.39616699267e-08
4.40542553888e-08
4.41468844546e-08
4.42395569546e-08
4.43322727197e-08
4.44250315806e-08
4.45178333683e-08
4.46106779138e-08
4.47035650481e-08
4.47964946025e-08
4.48894664084e-08
4.4982480297e-08
4.50755361e-08
4.51686336489e-08
4.52617727754e-08
4.53549533114e-08
4.54481750887e-08
4.55414379394e-08
4.56347416954e-08
4.57280861891e-08
4.58214712527e-08
4.59148967186e-08
4.60083624194e-08
4.61018681875e-08
4.61954138556e-08
4.62889992567e-08
4.63826242235e-08
4.6476288589e-08
4.65699921863e-08
4.66637348486e-08
4.67575164091e-08
4.68513367013e-08
4.69451955586e-08
4.70390928145e-08
4.71330283028e-08
4.72270018572e-08
4.73210133117e-08
4.74150625e-08
4.75091492564e-08
4.76032734149e-08
4.76974348098e-08
4.77916332756e-08
4.78858686466e-08
4.79801407573e-08
4.80744494426e-08
4.8168794537e-08
4.82631758755e-08
4.8357593293e-08
4.84520466245e-08
4.85465357052e-08
4.86410603703e-08
4.87356204552e-08
4.88302157954e-08
4.89248462262e-08
4.90195115835e-08
4.91142117028e-08
4.92089464202e-08
4.93037155714e-08
4.93985189925e-08
4.94933565196e-08
4.9588227989e-08
4.9683133237e-08
4.97780721e-08
4.98730444145e-08
4.99680500172e-08
5.00630887447e-08
5.0158160434e-08
5.02532649218e-08
5.03484020452e-08
5.04435716413e-08
5.05387735474e-08
5.06340076006e-08
5.07292736386e-08
5.08245714986e-08
5.09199010184e-08
5.10152620357e-08
5.11106543881e-08
5.12060779138e-08
5.13015324505e-08
5.13970178365e-08
5.14925339099e-08
5.1588080509e-08
5.16836574722e-08
5.17792646379e-08
5.18749018449e-08
5.19705689317e-08
5.20662657371e-08
5.21619921e-08
5.22577478594e-08
5.23535328544e-08
5.24493469241e-08
5.25451899078e-08
5.2641061645e-08
5.27369619749e-08
5.28328907373e-08
5.29288477718e-08
5.30248329181e-08
5.31208460162e-08
5.32168869059e-08
5.33129554273e-08
5.34090514207e-08
5.35051747262e-08
5.36013251842e-08
5.36975026351e-08
5.37937069196e-08
5.38899378782e-08
5.39861953517e-08
5.4082479181e-08
5.41787892069e-08
5.42751252706e-08
5.43714872132e-08
5.44678748759e-08
5.45642881e-08
5.4660726727e-08
5.47571905985e-08
5.4853679556e-08
5.49501934413e-08
5.50467320962e-08
5.51432953626e-08
5.52398830826e-08
5.53364950983e-08
5.54331312519e-08
5.55297913858e-08
5.56264753423e-08
5.57231829639e-08
5.58199140934e-08
5.59166685733e-08
5.60134462466e-08
5.6110246956e-08
5.62070705447e-08
5.63039168558e-08
5.64007857323e-08
5.64976770178e-08
5.65945905554e-08
5.66915261888e-08
5.67884837616e-08
5.68854631174e-08
5.69824641e-08
5.70794865534e-08
5.71765303214e-08
5.72735952483e-08
5.73706811782e-08
5.74677879554e-08
5.75649154242e-08
5.76620634292e-08
5.77592318149e-08
5.7856420426e-08
5.79536291074e-08
5.80508577038e-08
5.81481060602e-08
5.82453740217e-08
5.83426614336e-08
5.8439968141e-08
5.85372939893e-08
5.8634638824e-08
5.87320024906e-08
5.88293848349e-08
5.89267857026e-08
5.90242049394e-08
5.91216423915e-08
5.92190979049e-08
5.93165713256e-08
5.94140625e-08
5.95115712744e-08
5.96090974953e-08
5.97066410091e-08
5.98042016626e-08
5.99017793026e-08
5.99993737757e-08
6.0096984929e-08
6.01946126096e-08
6.02922566645e-08
6.0389916941e-08
6.04875932864e-08
6.05852855481e-08
6.06829935738e-08
6.0780717211e-08
6.08784563074e-08
6.09762107108e-08
6.10739802693e-08
6.11717648308e-08
6.12695642434e-08
6.13673783554e-08
6.1465207015e-08
6.15630500707e-08
6.1660907371e-08
6.17587787646e-08
6.18566641e-08
6.19545632262e-08
6.2052475992e-08
6.21504022464e-08
6.22483418386e-08
6.23462946178e-08
6.24442604331e-08
6.25422391342e-08
6.26402305703e-08
6.27382345912e-08
6.28362510466e-08
6.29342797861e-08
6.30323206598e-08
6.31303735175e-08
6.32284382095e-08
6.33265145858e-08
6.34246024967e-08
6.35227017927e-08
6.36208123242e-08
6.37189339418e-08
6.38170664962e-08
6.39152098381e-08
6.40133638184e-08
6.41115282881e-08
6.42097030982e-08
6.43078881e-08
6.44060831447e-08
6.45042880836e-08
6.46025027682e-08
6.47007270501e-08
6.4798960781e-08
6.48972038125e-08
6.49954559966e-08
6.50937171852e-08
6.51919872303e-08
6.52902659842e-08
6.5388553299e-08
6.54868490271e-08
6.55851530209e-08
6.56834651331e-08
6.57817852162e-08
6.58801131229e-08
6.59784487062e-08
6.60767918189e-08
6.61751423141e-08
6.6273500045e-08
6.63718648646e-08
6.64702366265e-08
6.6568615184e-08
6.66670003906e-08
6.67653921e-08
6.68637901659e-08
6.69621944421e-08
6.70606047825e-08
6.71590210411e-08
6.72574430722e-08
6.73558707298e-08
6.74543038683e-08
6.75527423421e-08
6.76511860057e-08
6.77496347138e-08
6.78480883209e-08
6.79465466821e-08
6.8045009652e-08
6.81434770858e-08
6.82419488386e-08
6.83404247654e-08
6.84389047218e-08
6.85373885629e-08
6.86358761444e-08
6.87343673218e-08
6.88328619508e-08
6.89313598871e-08
6.90298609868e-08
6.91283651057e-08
6.92268721e-08
6.93253818258e-08
6.94238941394e-08
6.95224088972e-08
6.96209259557e-08
6.97194451714e-08
6.9817966401e-08
6.99164895012e-08
7.00150143291e-08
7.01135407414e-08
7.02120685954e-08
7.0310597748e-08
7.04091280567e-08
7.05076593788e-08
7.06061915717e-08
7.0704724493e-08
7.08032580003e-08
7.09017919514e-08
7.10003262042e-08
7.10988606165e-08
7.11973950466e-08
7.12959293524e-08
7.13944633922e-08
7.14929970245e-08
7.15915301076e-08
7.16900625e-08
7.17885940605e-08
7.18871246476e-08
7.19856541204e-08
7.20841823377e-08
7.21827091586e-08
7.22812344421e-08
7.23797580475e-08
7.24782798342e-08
7.25767996615e-08
7.2675317389e-08
7.27738328763e-08
7.28723459831e-08
7.29708565692e-08
7.30693644947e-08
7.31678696194e-08
7.32663718034e-08
7.33648709071e-08
7.34633667907e-08
7.35618593146e-08
7.36603483394e-08
7.37588337255e-08
7.38573153338e-08
7.3955793025e-08
7.40542666601e-08
7.41527361e-08
7.42512012058e-08
7.43496618388e-08
7.44481178601e-08
7.45465691313e-08
7.46450155138e-08
7.47434568691e-08
7.4841893059e-08
7.49403239453e-08
7.50387493898e-08
7.51371692546e-08
7.52355834016e-08
7.53339916931e-08
7.54323939914e-08
7.55307901588e-08
7.56291800578e-08
7.57275635509e-08
7.58259405009e-08
7.59243107705e-08
7.60226742226e-08
7.61210307202e-08
7.62193801262e-08
7.63177223039e-08
7.64160571165e-08
7.65143844274e-08
7.66127041e-08
7.67110159979e-08
7.68093199848e-08
7.69076159243e-08
7.70059036804e-08
7.7104183117e-08
7.72024540981e-08
7.73007164878e-08
7.73989701505e-08
7.74972149505e-08
7.75954507522e-08
7.76936774201e-08
7.77918948188e-08
7.78901028132e-08
7.7988301268e-08
7.80864900482e-08
7.81846690187e-08
7.82828380448e-08
7.83809969917e-08
7.84791457246e-08
7.8577284109e-08
7.86754120104e-08
7.87735292944e-08
7.88716358268e-08
7.89697314734e-08
7.90678161e-08
7.91658895727e-08
7.92639517576e-08
7.9362002521e-08
7.9460041729e-08
7.95580692482e-08
7.96560849449e-08
7.97540886859e-08
7.98520803379e-08
7.99500597675e-08
8.00480268418e-08
8.01459814276e-08
8.02439233922e-08
8.03418526027e-08
8.04397689263e-08
8.05376722306e-08
8.06355623828e-08
8.07334392508e-08
8.0831302702e-08
8.09291526044e-08
8.10269888258e-08
8.11248112341e-08
8.12226196974e-08
8.1320414084e-08
8.14181942621e-08
8.15159601e-08
8.16137114663e-08
8.17114482294e-08
8.18091702581e-08
8.19068774211e-08
8.20045695874e-08
8.21022466257e-08
8.21999084053e-08
8.22975547953e-08
8.23951856648e-08
8.24928008834e-08
8.25904003203e-08
8.26879838453e-08
8.27855513278e-08
8.28831026378e-08
8.2980637645e-08
8.30781562193e-08
8.31756582308e-08
8.32731435497e-08
8.33706120462e-08
8.34680635906e-08
8.35654980533e-08
8.36629153049e-08
8.37603152161e-08
8.38576976575e-08
8.39550625e-08
8.40524096145e-08
8.4149738872e-08
8.42470501437e-08
8.43443433008e-08
8.44416182146e-08
8.45388747564e-08
8.4636112798e-08
8.47333322107e-08
8.48305328665e-08
8.4927714637e-08
8.50248773941e-08
8.512202101e-08
8.52191453567e-08
8.53162503064e-08
8.54133357314e-08
8.55104015041e-08
8.5607447497e-08
8.57044735827e-08
8.58014796339e-08
8.58984655234e-08
8.59954311241e-08
8.60923763089e-08
8.61893009511e-08
8.62862049237e-08
8.63830881e-08
8.64799503535e-08
8.65767915576e-08
8.66736115858e-08
8.6770410312e-08
8.68671876098e-08
8.69639433531e-08
8.70606774159e-08
8.71573896723e-08
8.72540799964e-08
8.73507482626e-08
8.74473943451e-08
8.75440181185e-08
8.76406194572e-08
8.77371982361e-08
8.78337543298e-08
8.79302876131e-08
8.80267979612e-08
8.81232852489e-08
8.82197493515e-08
8.83161901442e-08
8.84126075023e-08
8.85090013014e-08
8.86053714169e-08
8.87017177245e-08
8.87980401e-08
8.88943384192e-08
8.89906125579e-08
8.90868623924e-08
8.91830877987e-08
8.9279288653e-08
8.93754648316e-08
8.94716162111e-08
8.95677426679e-08
8.96638440787e-08
8.97599203202e-08
8.98559712691e-08
8.99519968026e-08
9.00487247811e-08
9.01505194891e-08
9.02580998601e-08
9.03714564607e-08
9.04905798626e-08
9.06154606425e-08
9.07460893821e-08
9.08824566683e-08
9.10245530931e-08
9.11723692535e-08
9.13258957514e-08
9.14851231941e-08
9.16500421938e-08
9.18206433678e-08
9.19969173383e-08
9.21788547328e-08
9.23664461838e-08
9.25596823288e-08
9.27585538106e-08
9.29630512766e-08
9.31731653798e-08
9.33888867779e-08
9.36102061339e-08
9.38371141157e-08
9.40696013964e-08
9.4307658654e-08
9.45512765718e-08
9.48004458379e-08
9.50551571458e-08
9.53154011938e-08
9.55811686853e-08
9.58524503289e-08
9.61292368381e-08
9.64115189317e-08
9.66992873333e-08
9.69925327718e-08
9.72912459811e-08
9.75954177e-08
9.79050386726e-08
9.8220099648e-08
9.85405913802e-08
9.88665046286e-08
9.91978301575e-08
9.95345587361e-08
9.98766811389e-08
1.00224188145e-07
1.0057707054e-07
1.00935319113e-07
1.01298924658e-07
1.01667877976e-07
1.0204216987e-07
1.02421791152e-07
1.02806732636e-07
1.03196985142e-07
1.03592539496e-07
1.03993386527e-07
1.0439951707e-07
1.04810921967e-07
1.05227592062e-07
1.05649518206e-07
1.06076691255e-07
1.06509102068e-07
1.06946741512e-07
1.07389600458e-07
1.07837669781e-07
1.08290940362e-07
1.08749403087e-07
1.09213048848e-07
1.09681868539e-07
1.10155853063e-07
1.10634993325e-07
1.11119280238e-07
1.11608704717e-07
1.12103257683e-07
1.12602930063e-07
1.1310771279e-07
1.13617596799e-07
1.14132573032e-07
1.14652632435e-07
1.15177765962e-07
1.15707964568e-07
1.16243219216e-07
1.16783520873e-07
1.17328860511e-07
1.17879229106e-07
1.18434617643e-07
1.18995017106e-07
1.1956041849e-07
1.20130812792e-07
1.20706191013e-07
1.21286544162e-07
1.21871863252e-07
1.224621393e-07
1.23057363329e-07
1.23657526366e-07
1.24262619446e-07
1.24872633605e-07
1.25487559888e-07
1.26107389341e-07
1.26732113019e-07
1.27361721979e-07
1.27996207286e-07
1.28635560007e-07
1.29279771216e-07
1.29928831992e-07
1.30582733418e-07
1.31241466583e-07
1.31905022581e-07
1.32573392511e-07
1.33246567476e-07
1.33924538586e-07
1.34607296954e-07
1.352948337e-07
1.35987139948e-07
1.36684206828e-07
1.37386025473e-07
1.38092587023e-07
1.38803882622e-07
1.39519903421e-07
1.40240640573e-07
1.40966085239e-07
1.41696228583e-07
1.42431061775e-07
1.4317057599e-07
1.43914762408e-07
1.44663612214e-07
1.45417116598e-07
1.46175266755e-07
1.46938053885e-07
1.47705469194e-07
1.48477503893e-07
1.49254149196e-07
1.50035396324e-07
1.50821236503e-07
1.51611660964e-07
1.52406660941e-07
1.53206227677e-07
1.54010352416e-07
1.5481902641e-07
1.55632240915e-07
1.56449987192e-07
1.57272256507e-07
1.58099040131e-07
1.5893032934e-07
1.59766115417e-07
1.60606389647e-07
1.61451143321e-07
1.62300367737e-07
1.63154054196e-07
1.64012194005e-07
1.64874778475e-07
1.65741798924e-07
1.66613246672e-07
1.67489113048e-07
1.68369389384e-07
1.69254067015e-07
1.70143137286e-07
1.71036591542e-07
1.71934421136e-07
1.72836617426e-07
1.73743171774e-07
1.74654075548e-07
1.7556932012e-07
1.76488896867e-07
1.77412797174e-07
1.78341012427e-07
1.79273534019e-07
1.80210353348e-07
1.81151461818e-07
1.82096850836e-07
1.83046511815e-07
1.84000436175e-07
1.84958615337e-07
1.85921040731e-07
1.8688770379e-07
1.87858595952e-07
1.88833708661e-07
1.89813033366e-07
1.9079656152e-07
1.91784284582e-07
1.92776194017e-07
1.93772281292e-07
1.94772537882e-07
1.95776955266e-07
1.96785524928e-07
1.97798238357e-07
1.98815087048e-07
1.998360625e-07
2.00861156217e-07
2.01890359709e-07
2.0292366449e-07
2.03961062081e-07
2.05002544004e-07
2.06048101792e-07
2.07097726977e-07
2.08151411101e-07
2.09209145708e-07
2.10270922347e-07
2.11336732575e-07
2.12406567952e-07
2.13480420042e-07
2.14558280416e-07
2.15640140649e-07
2.16725992322e-07
2.17815827021e-07
2.18909636335e-07
2.20007411861e-07
2.21109145199e-07
2.22214827955e-07
2.2332445174e-07
2.2443800817e-07
2.25555488865e-07
2.26676885453e-07
2.27802189564e-07
2.28931392834e-07
2.30064486905e-07
2.31201463422e-07
2.32342314038e-07
2.33487030409e-07
2.34635604196e-07
2.35788027066e-07
2.36944290691e-07
2.38104386747e-07
2.39268306917e-07
2.40436042886e-07
2.41607586348e-07
2.42782929e-07
2.43962062542e-07
2.45144978684e-07
2.46331669136e-07
2.47522125616e-07
2.48716339846e-07
2.49914303555e-07
2.51116008474e-07
2.52321446341e-07
2.53530608899e-07
2.54743487895e-07
2.55960075083e-07
2.5718036222e-07
2.58404341068e-07
2.59632003398e-07
2.6086334098e-07
2.62098345594e-07
2.63337009022e-07
2.64579323053e-07
2.6582527948e-07
2.67074870102e-07
2.68328086723e-07
2.6958492115e-07
2.70845365197e-07
2.72109410684e-07
2.73377049433e-07
2.74648273274e-07
2.75923074041e-07
2.77201443572e-07
2.78483373712e-07
2.7976885631e-07
2.8105788322e-07
2.82350446301e-07
2.83646537417e-07
2.84946148439e-07
2.8624927124e-07
2.875558977e-07
2.88866019704e-07
2.90179629141e-07
2.91496717906e-07
2.92817277898e-07
2.94141301024e-07
2.95468779192e-07
2.96799704318e-07
2.98134068322e-07
2.99471863129e-07
3.00813080669e-07
3.02157712877e-07
3.03505751694e-07
3.04857189066e-07
3.06212016943e-07
3.0757022728e-07
3.08931812037e-07
3.10296763182e-07
3.11665072685e-07
3.1303673252e-07
3.1441173467e-07
3.15790071121e-07
3.17171733863e-07
3.18556714892e-07
3.1994500621e-07
3.21336599823e-07
3.22731487743e-07
3.24129661985e-07
3.25531114572e-07
3.26935837529e-07
3.28343822889e-07
3.29755062688e-07
3.31169548968e-07
3.32587273775e-07
3.34008229163e-07
3.35432407186e-07
3.36859799908e-07
3.38290399397e-07
3.39724197722e-07
3.41161186963e-07
3.42601359202e-07
3.44044706525e-07
3.45491221026e-07
3.46940894801e-07
3.48393719954e-07
3.49849688592e-07
3.51308792827e-07
3.52771024778e-07
3.54236376568e-07
3.55704840324e-07
3.57176408179e-07
3.58651072272e-07
3.60128824745e-07
3.61609657747e-07
3.63093563432e-07
3.64580533956e-07
3.66070561485e-07
3.67563638186e-07
3.69059756233e-07
3.70558907805e-07
3.72061085084e-07
3.73566280261e-07
3.75074485529e-07
3.76585693086e-07
3.78099895137e-07
3.79617083891e-07
3.81137251562e-07
3.82660390369e-07
3.84186492537e-07
3.85715550294e-07
3.87247555875e-07
3.88782501519e-07
3.90320379472e-07
3.91861181983e-07
3.93404901305e-07
3.949515297e-07
3.96501059432e-07
3.9805348277e-07
3.9960879199e-07
4.01166979372e-07
4.02728037201e-07
4.04291957766e-07
4.05858733364e-07
4.07428356295e-07
4.09000818863e-07
4.10576113379e-07
4.1215423216e-07
4.13735167524e-07
4.15318911799e-07
4.16905457314e-07
4.18494796406e-07
4.20086921415e-07
4.21681824687e-07
4.23279498574e-07
4.24879935431e-07
4.2648312762e-07
4.28089067506e-07
4.2969774746e-07
4.31309159861e-07
4.32923297087e-07
4.34540151527e-07
4.36159715572e-07
4.37781981617e-07
4.39406942066e-07
4.41034589324e-07
4.42664915804e-07
4.44297913923e-07
4.45933576101e-07
4.47571894767e-07
4.49212862353e-07
4.50856471295e-07
4.52502714036e-07
4.54151583023e-07
4.55803070709e-07
4.5745716955e-07
4.59113872011e-07
4.60773170557e-07
4.62435057662e-07
4.64099525804e-07
4.65766567464e-07
4.67436175132e-07
4.691083413e-07
4.70783058466e-07
4.72460319133e-07
4.7414011581e-07
4.75822441009e-07
4.77507287248e-07