/*--------------------------------*- C++ -*----------------------------------*\
| =========                 |                                                 |
| \\      /  F ield         | OpenFOAM: The Open Source CFD Toolbox           |
|  \\    /   O peration     | Version:  dev                                   |
|   \\  /    A nd           | Web:      www.OpenFOAM.org                      |
|    \\/     M anipulation  |                                                 |
\*---------------------------------------------------------------------------*/
FoamFile
{
    version     2.0;
    format      ascii;
    class       volScalarField;
    location    "0";
    object      moment.3.populationBalance;
}
// * * * * * * * * * * * * * * * * * * * * * * * * * * * * * * * * * * * * * //

dimensions      [0 0 0 0 0 0 0];

internalField   nonuniform List<scalar> 
5000
(
1.2797440128e-12
1.15130890368e-11
3.1968008e-11
6.26322227328e-11
1.03493459981e-10
1.54539451405e-10
2.15757933581e-10
2.87136648e-10
3.68663341069e-10
4.60325764109e-10
5.62111673357e-10
6.74008829965e-10
7.96005e-10
9.28087954445e-10
1.0702454692e-09
1.22246532507e-09
1.38473530779e-09
1.557043208e-09
1.73937682126e-09
1.93172394804e-09
2.13407239374e-09
2.34640996865e-09
2.568724488e-09
2.80100377192e-09
3.04323564545e-09
3.29540793857e-09
3.55750848616e-09
3.829525128e-09
4.11144570881e-09
4.40325807822e-09
4.70495009076e-09
5.0165096059e-09
5.337924488e-09
5.66918260635e-09
6.01027183515e-09
6.36118005352e-09
6.72189514548e-09
7.092405e-09
7.47269751092e-09
7.86276057704e-09
8.26258210203e-09
8.67214999451e-09
9.091452168e-09
9.52047654094e-09
9.95921103668e-09
1.04076435835e-08
1.08657621146e-08
1.1333554568e-08
1.18110088868e-08
1.22981130189e-08
1.27948549171e-08
1.33012225393e-08
1.3817203848e-08
1.43427868109e-08
1.48779594005e-08
1.54227095941e-08
1.59770253742e-08
1.6540894728e-08
1.71143056476e-08
1.76972461302e-08
1.82897041777e-08
1.8891667797e-08
1.9503125e-08
2.01240638034e-08
2.07544722289e-08
2.1394338303e-08
2.20436500572e-08
2.2702395528e-08
2.33705627566e-08
2.40481397893e-08
2.47351146773e-08
2.54314754765e-08
2.6137210248e-08
2.68523070577e-08
2.75767539763e-08
2.83105390797e-08
2.90536504484e-08
2.9806076168e-08
3.0567804329e-08
3.13388230267e-08
3.21191203615e-08
3.29086844385e-08
3.3707503368e-08
3.45155652649e-08
3.53328582492e-08
3.61593704458e-08
3.69950899845e-08
3.7840005e-08
3.86941036319e-08
3.95573740247e-08
4.04298043279e-08
4.13113826959e-08
4.2202097288e-08
4.31019362683e-08
4.4010887806e-08
4.4928940075e-08
4.58560812544e-08
4.6792299528e-08
4.77375830846e-08
4.86919201178e-08
4.96552988263e-08
5.06277074135e-08
5.1609134088e-08
5.25995670631e-08
5.35989945569e-08
5.46074047928e-08
5.56247859989e-08
5.6651126408e-08
5.76864142582e-08
5.87306377923e-08
5.9783785258e-08
6.0845844908e-08
6.1916805e-08
6.29966537964e-08
6.40853795646e-08
6.51829705769e-08
6.62894151107e-08
6.7404701448e-08
6.8528817876e-08
6.96617526866e-08
7.08034941768e-08
7.19540306483e-08
7.3113350408e-08
7.42814417674e-08
7.54582930432e-08
7.66438925568e-08
7.78382286346e-08
7.9041289608e-08
8.02530638131e-08
8.14735395912e-08
8.27027052882e-08
8.39405492552e-08
8.5187059848e-08
8.64422254275e-08
8.77060343593e-08
8.89784750142e-08
9.02595357676e-08
9.1549205e-08
9.28474710968e-08
9.41543224484e-08
9.54697474499e-08
9.67937345014e-08
9.8126272008e-08
9.94673483797e-08
1.00816952031e-07
1.02175071383e-07
1.03541694858e-07
1.04916810888e-07
1.06300407906e-07
1.07692474353e-07
1.09092998671e-07
1.10501969312e-07
1.11919374728e-07
1.13345203379e-07
1.14779443729e-07
1.16222084248e-07
1.17673113408e-07
1.19132519688e-07
1.20600291573e-07
1.2207641755e-07
1.23560886114e-07
1.25053685763e-07
1.26554805e-07
1.28064232333e-07
1.29581956276e-07
1.31107965347e-07
1.32642248068e-07
1.34184792968e-07
1.35735588579e-07
1.3729462344e-07
1.38861886092e-07
1.40437365084e-07
1.42021048968e-07
1.43612926301e-07
1.45212985646e-07
1.4682121557e-07
1.48437604645e-07
1.50062141448e-07
1.51694814561e-07
1.53335612572e-07
1.54984524071e-07
1.56641537656e-07
1.58306641928e-07
1.59979825494e-07
1.61661076965e-07
1.63350384958e-07
1.65047738095e-07
1.66753125e-07
1.68466534306e-07
1.70187954648e-07
1.71917374668e-07
1.73654783011e-07
1.75400168328e-07
1.77153519275e-07
1.78914824513e-07
1.80684072706e-07
1.82461252526e-07
1.84246352648e-07
1.86039361752e-07
1.87840268524e-07
1.89649061652e-07
1.91465729834e-07
1.93290261768e-07
1.95122646159e-07
1.96962871718e-07
1.98810927158e-07
2.006668012e-07
2.02530482568e-07
2.04401959991e-07
2.06281222204e-07
2.08168257947e-07
2.10063055962e-07
2.11965605e-07
2.13875893814e-07
2.15793911164e-07
2.17719645813e-07
2.1965308653e-07
2.21594222088e-07
2.23543041267e-07
2.25499532849e-07
2.27463685624e-07
2.29435488384e-07
2.31414929928e-07
2.33401999059e-07
2.35396684585e-07
2.37398975319e-07
2.39408860079e-07
2.41426327688e-07
2.43451366973e-07
2.45483966768e-07
2.4752411591e-07
2.4957180324e-07
2.51627017608e-07
2.53689747865e-07
2.55759982867e-07
2.57837711479e-07
2.59922922566e-07
2.62015605e-07
2.64115747659e-07
2.66223339424e-07
2.68338369182e-07
2.70460825824e-07
2.72590698248e-07
2.74727975354e-07
2.7687264605e-07
2.79024699246e-07
2.81184123858e-07
2.83350908808e-07
2.85525043022e-07
2.8770651543e-07
2.8989531497e-07
2.9209143058e-07
2.94294851208e-07
2.96505565804e-07
2.98723563322e-07
3.00948832725e-07
3.03181362977e-07
3.05421143048e-07
3.07668161914e-07
3.09922408555e-07
3.12183871955e-07
3.14452541105e-07
3.16728405e-07
3.19011452639e-07
3.21301673028e-07
3.23599055175e-07
3.25903588095e-07
3.28215260808e-07
3.30534062338e-07
3.32859981714e-07
3.35193007971e-07
3.37533130148e-07
3.39880337288e-07
3.42234618441e-07
3.4459596266e-07
3.46964359004e-07
3.49339796537e-07
3.51722264328e-07
3.5411175145e-07
3.56508246981e-07
3.58911740004e-07
3.61322219609e-07
3.63739674888e-07
3.66164094939e-07
3.68595468866e-07
3.71033785775e-07
3.73479034781e-07
3.75931205e-07
3.78390285556e-07
3.80856265575e-07
3.83329134192e-07
3.85808880542e-07
3.88295493768e-07
3.90788963018e-07
3.93289277443e-07
3.95796426201e-07
3.98310398454e-07
4.00831183368e-07
4.03358770116e-07
4.05893147873e-07
4.08434305823e-07
4.1098223315e-07
4.13536919048e-07
4.16098352712e-07
4.18666523343e-07
4.21241420148e-07
4.23823032337e-07
4.26411349128e-07
4.2900635974e-07
4.31608053401e-07
4.34216419339e-07
4.36831446792e-07
4.39453125e-07
4.42081443208e-07
4.44716390667e-07
4.47357956633e-07
4.50006130364e-07
4.52660901128e-07
4.55322258193e-07
4.57990190836e-07
4.60664688335e-07
4.63345739976e-07
4.66033335048e-07
4.68727462846e-07
4.71428112671e-07
4.74135273825e-07
4.7684893562e-07
4.79569087368e-07
4.8229571839e-07
4.85028818009e-07
4.87768375555e-07
4.90514380362e-07
4.93266821768e-07
4.96025689118e-07
4.9879097176e-07
5.01562659047e-07
5.0434074034e-07
5.07125205e-07
5.09916042397e-07
5.12713241903e-07
5.15516792898e-07
5.18326684763e-07
5.21142906888e-07
5.23965448665e-07
5.26794299492e-07
5.29629448773e-07
5.32470885914e-07
5.35318600328e-07
5.38172581433e-07
5.41032818652e-07
5.43899301412e-07
5.46772019145e-07
5.49650961288e-07
5.52536117284e-07
5.55427476579e-07
5.58325028626e-07
5.61228762882e-07
5.64138668808e-07
5.67054735871e-07
5.69976953543e-07
5.729053113e-07
5.75839798623e-07
5.78780405e-07
5.81727119921e-07
5.84679932883e-07
5.87638833387e-07
5.90603810938e-07
5.93574855048e-07
5.96551955233e-07
5.99535101013e-07
6.02524281914e-07
6.05519487468e-07
6.08520707208e-07
6.11527930676e-07
6.14541147418e-07
6.17560346982e-07
6.20585518926e-07
6.23616652808e-07
6.26653738194e-07
6.29696764654e-07
6.32745721762e-07
6.35800599098e-07
6.38861386248e-07
6.419280728e-07
6.4500064835e-07
6.48079102496e-07
6.51163424843e-07
6.54253605e-07
6.57349632582e-07
6.60451497207e-07
6.63559188499e-07
6.66672696089e-07
6.69792009608e-07
6.72917118696e-07
6.76048012998e-07
6.7918468216e-07
6.82327115837e-07
6.85475303688e-07
6.88629235375e-07
6.91788900567e-07
6.94954288937e-07
6.98125390163e-07
7.01302193928e-07
7.0448468992e-07
7.07672867832e-07
7.10866717361e-07
7.14066228211e-07
7.17271390088e-07
7.20482192706e-07
7.23698625781e-07
7.26920679036e-07
7.30148342198e-07
7.33381605e-07
7.36620457178e-07
7.39864888475e-07
7.43114888636e-07
7.46370447415e-07
7.49631554568e-07
7.52898199856e-07
7.56170373046e-07
7.5944806391e-07
7.62731262223e-07
7.66019957768e-07
7.6931414033e-07
7.726137997e-07
7.75918925676e-07
7.79229508056e-07
7.82545536648e-07
7.85867001262e-07
7.89193891714e-07
7.92526197825e-07
7.95863909419e-07
7.99207016328e-07
8.02555508387e-07
8.05909375436e-07
8.0926860732e-07
8.1263319389e-07
8.16003125e-07
8.19378390511e-07
8.22758980286e-07
8.26144884197e-07
8.29536092118e-07
8.32932593928e-07
8.36334379512e-07
8.39741438759e-07
8.43153761564e-07
8.46571337825e-07
8.49994157448e-07
8.53422210341e-07
8.56855486418e-07
8.60293975598e-07
8.63737667805e-07
8.67186552968e-07
8.7064062102e-07
8.740998619e-07
8.77564265552e-07
8.81033821923e-07
8.84508520968e-07
8.87988352644e-07
8.91473306915e-07
8.94963373748e-07
8.98458543117e-07
9.01958805e-07
9.05464149379e-07
9.08974566242e-07
9.12490045582e-07
9.16010577397e-07
9.19536151688e-07
9.23066758464e-07
9.26602387736e-07
9.30143029521e-07
9.33688673843e-07
9.37239310728e-07
9.40794930208e-07
9.44355522319e-07
9.47921077105e-07
9.5149158461e-07
9.55067034888e-07
9.58647417994e-07
9.62232723991e-07
9.65822942943e-07
9.69418064924e-07
9.73018080008e-07
9.76622978277e-07
9.80232749818e-07
9.8384738472e-07
9.87466873081e-07
9.91091205e-07
9.94720370584e-07
9.98354359942e-07
1.00199316319e-06
1.00563677045e-06
1.00928517185e-06
1.01293835751e-06
1.01659631758e-06
1.02025904218e-06
1.02392652148e-06
1.02759874561e-06
1.03127570473e-06
1.034957389e-06
1.0386437886e-06
1.04233489367e-06
1.04603069441e-06
1.04973118098e-06
1.05343634358e-06
1.0571461724e-06
1.06086065762e-06
1.06457978945e-06
1.06830355809e-06
1.07203195374e-06
1.07576496664e-06
1.07950258698e-06
1.083244805e-06
1.08699161092e-06
1.09074299499e-06
1.09449894742e-06
1.09825945848e-06
1.10202451841e-06
1.10579411745e-06
1.10956824588e-06
1.11334689395e-06
1.11713005193e-06
1.12091771009e-06
1.12470985871e-06
1.12850648807e-06
1.13230758847e-06
1.13611315019e-06
1.13992316353e-06
1.14373761879e-06
1.14755650628e-06
1.15137981632e-06
1.15520753921e-06
1.15903966529e-06
1.16287618487e-06
1.1667170883e-06
1.1705623659e-06
1.17441200802e-06
1.178266005e-06
1.1821243472e-06
1.18598702497e-06
1.18985402868e-06
1.19372534869e-06
1.19760097537e-06
1.20148089909e-06
1.20536511025e-06
1.20925359922e-06
1.21314635639e-06
1.21704337217e-06
1.22094463694e-06
1.22485014113e-06
1.22875987513e-06
1.23267382936e-06
1.23659199425e-06
1.24051436021e-06
1.24444091769e-06
1.2483716571e-06
1.2523065689e-06
1.25624564353e-06
1.26018887143e-06
1.26413624307e-06
1.2680877489e-06
1.27204337939e-06
1.276003125e-06
1.27996697621e-06
1.28393492351e-06
1.28790695736e-06
1.29188306827e-06
1.29586324673e-06
1.29984748323e-06
1.30383576828e-06
1.30782809239e-06
1.31182444607e-06
1.31582481985e-06
1.31982920424e-06
1.32383758977e-06
1.32784996697e-06
1.33186632639e-06
1.33588665857e-06
1.33991095405e-06
1.34393920339e-06
1.34797139715e-06
1.35200752588e-06
1.35604758017e-06
1.36009155057e-06
1.36413942767e-06
1.36819120205e-06
1.37224686429e-06
1.376306405e-06
1.38036981476e-06
1.38443708418e-06
1.38850820387e-06
1.39258316443e-06
1.39666195649e-06
1.40074457066e-06
1.40483099758e-06
1.40892122787e-06
1.41301525217e-06
1.41711306113e-06
1.42121464538e-06
1.42531999559e-06
1.4294291024e-06
1.43354195648e-06
1.43765854849e-06
1.4417788691e-06
1.445902909e-06
1.45003065886e-06
1.45416210937e-06
1.45829725121e-06
1.46243607508e-06
1.46657857169e-06
1.47072473174e-06
1.47487454594e-06
1.479028005e-06
1.48318509965e-06
1.4873458206e-06
1.4915101586e-06
1.49567810437e-06
1.49984964865e-06
1.50402478219e-06
1.50820349574e-06
1.51238578005e-06
1.51657162589e-06
1.52076102401e-06
1.52495396519e-06
1.52915044019e-06
1.53335043981e-06
1.53755395482e-06
1.54176097601e-06
1.54597149417e-06
1.55018550012e-06
1.55440298464e-06
1.55862393854e-06
1.56284835265e-06
1.56707621777e-06
1.57130752474e-06
1.57554226438e-06
1.57978042752e-06
1.584022005e-06
1.58826698767e-06
1.59251536637e-06
1.59676713195e-06
1.60102227528e-06
1.60528078721e-06
1.60954265861e-06
1.61380788036e-06
1.61807644334e-06
1.62234833842e-06
1.62662355649e-06
1.63090208844e-06
1.63518392518e-06
1.6394690576e-06
1.64375747661e-06
1.64804917313e-06
1.65234413806e-06
1.65664236233e-06
1.66094383687e-06
1.66524855261e-06
1.66955650049e-06
1.67386767144e-06
1.67818205641e-06
1.68249964636e-06
1.68682043223e-06
1.691144405e-06
1.69547155562e-06
1.69980187507e-06
1.70413535433e-06
1.70847198436e-06
1.71281175617e-06
1.71715466073e-06
1.72150068905e-06
1.72584983213e-06
1.73020208096e-06
1.73455742657e-06
1.73891585996e-06
1.74327737215e-06
1.74764195418e-06
1.75200959707e-06
1.75638029185e-06
1.76075402956e-06
1.76513080126e-06
1.76951059798e-06
1.77389341078e-06
1.77827923073e-06
1.78266804888e-06
1.78705985631e-06
1.79145464408e-06
1.79585240329e-06
1.800253125e-06
1.80465680032e-06
1.80906342032e-06
1.81347297613e-06
1.81788545883e-06
1.82230085953e-06
1.82671916935e-06
1.83114037941e-06
1.83556448082e-06
1.83999146472e-06
1.84442132225e-06
1.84885404453e-06
1.85328962271e-06
1.85772804794e-06
1.86216931138e-06
1.86661340417e-06
1.87106031748e-06
1.87551004248e-06
1.87996257035e-06
1.88441789225e-06
1.88887599937e-06
1.8933368829e-06
1.89780053403e-06
1.90226694395e-06
1.90673610387e-06
1.911208005e-06
1.91568263854e-06
1.92015999572e-06
1.92464006775e-06
1.92912284586e-06
1.93360832129e-06
1.93809648526e-06
1.94258732902e-06
1.94708084382e-06
1.9515770209e-06
1.95607585153e-06
1.96057732696e-06
1.96508143845e-06
1.96958817729e-06
1.97409753474e-06
1.97860950209e-06
1.98312407062e-06
1.98764123161e-06
1.99216097638e-06
1.99668329621e-06
2.00120818241e-06
2.00573562629e-06
2.01026561917e-06
2.01479815236e-06
2.0193332172e-06
2.023870805e-06
2.02841090711e-06
2.03295351486e-06
2.0374986196e-06
2.04204621268e-06
2.04659628545e-06
2.05114882927e-06
2.0557038355e-06
2.06026129552e-06
2.0648212007e-06
2.06938354241e-06
2.07394831204e-06
2.07851550098e-06
2.08308510062e-06
2.08765710236e-06
2.09223149761e-06
2.09680827777e-06
2.10138743425e-06
2.10596895847e-06
2.11055284186e-06
2.11513907585e-06
2.11972765186e-06
2.12431856134e-06
2.12891179572e-06
2.13350734646e-06
2.138105205e-06
2.14270536281e-06
2.14730781134e-06
2.15191254207e-06
2.15651954647e-06
2.16112881601e-06
2.16574034217e-06
2.17035411645e-06
2.17497013033e-06
2.17958837531e-06
2.18420884289e-06
2.18883152458e-06
2.19345641189e-06
2.19808349634e-06
2.20271276944e-06
2.20734422273e-06
2.21197784773e-06
2.21661363599e-06
2.22125157903e-06
2.22589166842e-06
2.23053389569e-06
2.2351782524e-06
2.23982473013e-06
2.24447332042e-06
2.24912401485e-06
2.253776805e-06
2.25843168245e-06
2.26308863877e-06
2.26774766557e-06
2.27240875444e-06
2.27707189697e-06
2.28173708477e-06
2.28640430946e-06
2.29107356264e-06
2.29574483593e-06
2.30041812097e-06
2.30509340937e-06
2.30977069278e-06
2.31444996283e-06
2.31913121117e-06
2.32381442945e-06
2.32849960931e-06
2.33318674243e-06
2.33787582045e-06
2.34256683506e-06
2.34725977793e-06
2.35195464073e-06
2.35665141514e-06
2.36135009286e-06
2.36605066558e-06
2.370753125e-06
2.37545746282e-06
2.38016367074e-06
2.38487174049e-06
2.38958166378e-06
2.39429343233e-06
2.39900703787e-06
2.40372247213e-06
2.40843972685e-06
2.41315879377e-06
2.41787966465e-06
2.42260233122e-06
2.42732678526e-06
2.43205301852e-06
2.43678102276e-06
2.44151078977e-06
2.44624231131e-06
2.45097557917e-06
2.45571058514e-06
2.46044732101e-06
2.46518577857e-06
2.46992594962e-06
2.47466782598e-06
2.47941139945e-06
2.48415666185e-06
2.488903605e-06
2.49365222073e-06
2.49840250086e-06
2.50315443724e-06
2.5079080217e-06
2.51266324609e-06
2.51742010226e-06
2.52217858207e-06
2.52693867737e-06
2.53170038003e-06
2.53646368193e-06
2.54122857493e-06
2.54599505092e-06
2.55076310178e-06
2.55553271941e-06
2.56030389569e-06
2.56507662253e-06
2.56985089182e-06
2.57462669549e-06
2.57940402545e-06
2.58418287361e-06
2.5889632319e-06
2.59374509224e-06
2.59852844658e-06
2.60331328685e-06
2.608099605e-06
2.61288739297e-06
2.61767664272e-06
2.62246734621e-06
2.62725949539e-06
2.63205308225e-06
2.63684809875e-06
2.64164453687e-06
2.64644238859e-06
2.65124164591e-06
2.65604230081e-06
2.66084434529e-06
2.66564777137e-06
2.67045257103e-06
2.67525873631e-06
2.68006625921e-06
2.68487513176e-06
2.68968534598e-06
2.69449689391e-06
2.69930976758e-06
2.70412395905e-06
2.70893946035e-06
2.71375626353e-06
2.71857436066e-06
2.72339374379e-06
2.728214405e-06
2.73303633635e-06
2.73785952992e-06
2.7426839778e-06
2.74750967206e-06
2.75233660481e-06
2.75716476813e-06
2.76199415413e-06
2.76682475492e-06
2.7716565626e-06
2.77648956929e-06
2.78132376711e-06
2.7861591482e-06
2.79099570467e-06
2.79583342867e-06
2.80067231233e-06
2.8055123478e-06
2.81035352724e-06
2.81519584279e-06
2.82003928662e-06
2.82488385089e-06
2.82972952777e-06
2.83457630944e-06
2.83942418808e-06
2.84427315587e-06
2.849123205e-06
2.85397432767e-06
2.85882651607e-06
2.86367976242e-06
2.86853405891e-06
2.87338939777e-06
2.87824577121e-06
2.88310317146e-06
2.88796159075e-06
2.8928210213e-06
2.89768145537e-06
2.90254288519e-06
2.90740530301e-06
2.91226870109e-06
2.91713307168e-06
2.92199840705e-06
2.92686469946e-06
2.9317319412e-06
2.93660012453e-06
2.94146924175e-06
2.94633928513e-06
2.95121024697e-06
2.95608211958e-06
2.96095489524e-06
2.96582856628e-06
2.970703125e-06
2.97557856372e-06
2.98045487476e-06
2.98533205046e-06
2.99021008313e-06
2.99508896513e-06
2.99996868879e-06
3.00484924645e-06
3.00973063048e-06
3.01461283322e-06
3.01949584705e-06
3.02437966432e-06
3.02926427741e-06
3.03414967869e-06
3.03903586055e-06
3.04392281537e-06
3.04881053554e-06
3.05369901347e-06
3.05858824154e-06
3.06347821217e-06
3.06836891777e-06
3.07326035075e-06
3.07815250354e-06
3.08304536855e-06
3.08793893823e-06
3.092833205e-06
3.09772816131e-06
3.1026237996e-06
3.10752011232e-06
3.11241709193e-06
3.11731473089e-06
3.12221302166e-06
3.12711195671e-06
3.13201152852e-06
3.13691172956e-06
3.14181255233e-06
3.14671398931e-06
3.15161603299e-06
3.15651867588e-06
3.16142191047e-06
3.16632572929e-06
3.17123012484e-06
3.17613508964e-06
3.18104061621e-06
3.18594669709e-06
3.19085332481e-06
3.1957604919e-06
3.20066819092e-06
3.2055764144e-06
3.21048515491e-06
3.215394405e-06
3.22030415723e-06
3.22521440418e-06
3.23012513841e-06
3.23503635251e-06
3.23994803905e-06
3.24486019062e-06
3.24977279983e-06
3.25468585926e-06
3.25959936152e-06
3.26451329921e-06
3.26942766495e-06
3.27434245135e-06
3.27925765105e-06
3.28417325665e-06
3.28908926081e-06
3.29400565615e-06
3.29892243531e-06
3.30383959095e-06
3.30875711571e-06
3.31367500225e-06
3.31859324323e-06
3.32351183133e-06
3.3284307592e-06
3.33335001953e-06
3.338269605e-06
3.34318950829e-06
3.3481097221e-06
3.35303023912e-06
3.35795105206e-06
3.36287215361e-06
3.36779353649e-06
3.37271519341e-06
3.3776371171e-06
3.38255930029e-06
3.38748173569e-06
3.39240441605e-06
3.3973273341e-06
3.4022504826e-06
3.40717385429e-06
3.41209744193e-06
3.41702123827e-06
3.42194523609e-06
3.42686942815e-06
3.43179380722e-06
3.43671836609e-06
3.44164309754e-06
3.44656799436e-06
3.45149304934e-06
3.45641825529e-06
3.461343605e-06
3.46626909129e-06
3.47119470697e-06
3.47612044486e-06
3.48104629778e-06
3.48597225857e-06
3.49089832005e-06
3.49582447506e-06
3.50075071645e-06
3.50567703707e-06
3.51060342977e-06
3.5155298874e-06
3.52045640284e-06
3.52538296894e-06
3.53030957858e-06
3.53523622465e-06
3.54016290001e-06
3.54508959757e-06
3.55001631021e-06
3.55494303083e-06
3.55986975233e-06
3.56479646762e-06
3.56972316961e-06
3.57464985122e-06
3.57957650538e-06
3.584503125e-06
3.58942970302e-06
3.59435623238e-06
3.59928270602e-06
3.60420911689e-06
3.60913545793e-06
3.6140617221e-06
3.61898790237e-06
3.62391399171e-06
3.62883998307e-06
3.63376586945e-06
3.63869164381e-06
3.64361729915e-06
3.64854282846e-06
3.65346822473e-06
3.65839348097e-06
3.66331859017e-06
3.66824354536e-06
3.67316833954e-06
3.67809296573e-06
3.68301741697e-06
3.68794168628e-06
3.69286576669e-06
3.69778965125e-06
3.70271333301e-06
3.707636805e-06
3.71256006029e-06
3.71748309194e-06
3.72240589301e-06
3.72732845656e-06
3.73225077569e-06
3.73717284346e-06
3.74209465295e-06
3.74701619727e-06
3.75193746949e-06
3.75685846273e-06
3.76177917008e-06
3.76669958466e-06
3.77161969957e-06
3.77653950794e-06
3.78145900289e-06
3.78637817755e-06
3.79129702505e-06
3.79621553853e-06
3.80113371113e-06
3.80605153601e-06
3.81096900631e-06
3.81588611519e-06
3.82080285582e-06
3.82571922137e-06
3.830635205e-06
3.8355507999e-06
3.84046599924e-06
3.84538079622e-06
3.85029518402e-06
3.85520915585e-06
3.8601227049e-06
3.86503582439e-06
3.86994850753e-06
3.87486074753e-06
3.87977253761e-06
3.884683871e-06
3.88959474094e-06
3.89450514066e-06
3.8994150634e-06
3.90432450241e-06
3.90923345094e-06
3.91414190224e-06
3.91904984958e-06
3.92395728623e-06
3.92886420545e-06
3.93377060052e-06
3.93867646472e-06
3.94358179134e-06
3.94848657367e-06
3.953390805e-06
3.95829447864e-06
3.96319758788e-06
3.96810012605e-06
3.97300208645e-06
3.97790346241e-06
3.98280424725e-06
3.9877044343e-06
3.99260401689e-06
3.99750298838e-06
4.00240134209e-06
4.00729907138e-06
4.01219616961e-06
4.01709263013e-06
4.02198844632e-06
4.02688361153e-06
4.03177811914e-06
4.03667196254e-06
4.0415651351e-06
4.04645763022e-06
4.05134944129e-06
4.0562405617e-06
4.06113098487e-06
4.0660207042e-06
4.0709097131e-06
4.075798005e-06
4.08068557331e-06
4.08557241147e-06
4.09045851291e-06
4.09534387106e-06
4.10022847937e-06
4.10511233129e-06
4.10999542027e-06
4.11487773976e-06
4.11975928324e-06
4.12464004417e-06
4.12952001602e-06
4.13439919226e-06
4.13927756639e-06
4.14415513189e-06
4.14903188225e-06
4.15390781096e-06
4.15878291154e-06
4.16365717749e-06
4.16853060231e-06
4.17340317953e-06
4.17827490267e-06
4.18314576525e-06
4.1880157608e-06
4.19288488288e-06
4.197753125e-06
4.20262048073e-06
4.2074869436e-06
4.21235250719e-06
4.21721716504e-06
4.22208091073e-06
4.22694373782e-06
4.2318056399e-06
4.23666661054e-06
4.24152664332e-06
4.24638573185e-06
4.25124386971e-06
4.2561010505e-06
4.26095726783e-06
4.26581251532e-06
4.27066678657e-06
4.2755200752e-06
4.28037237485e-06
4.28522367913e-06
4.29007398169e-06
4.29492327617e-06
4.2997715562e-06
4.30461881545e-06
4.30946504755e-06
4.31431024618e-06
4.319154405e-06
4.32399751767e-06
4.32883957788e-06
4.33368057929e-06
4.3385205156e-06
4.34335938049e-06
4.34819716765e-06
4.35303387079e-06
4.35786948361e-06
4.36270399982e-06
4.36753741313e-06
4.37236971725e-06
4.37720090592e-06
4.38203097286e-06
4.3868599118e-06
4.39168771649e-06
4.39651438066e-06
4.40133989806e-06
4.40616426244e-06
4.41098746757e-06
4.41580950721e-06
4.42063037512e-06
4.42545006507e-06
4.43026857085e-06
4.43508588623e-06
4.439902005e-06
4.44471692096e-06
4.4495306279e-06
4.45434311962e-06
4.45915438993e-06
4.46396443265e-06
4.46877324158e-06
4.47358081056e-06
4.4783871334e-06
4.48319220393e-06
4.48799601601e-06
4.49279856346e-06
4.49759984013e-06
4.50241803946e-06
4.5073622655e-06
4.51245048851e-06
4.51768246958e-06
4.52305796995e-06
4.52857675097e-06
4.53423857413e-06
4.54004320103e-06
4.54599039343e-06
4.55207991319e-06
4.55831152233e-06
4.56468498296e-06
4.57120005735e-06
4.57785650788e-06
4.58465409709e-06
4.59159258761e-06
4.59867174222e-06
4.60589132383e-06
4.61325109547e-06
4.62075082031e-06
4.62839026164e-06
4.63616918288e-06
4.64408734759e-06
4.65214451945e-06
4.66034046227e-06
4.66867493998e-06
4.67714771667e-06
4.68575855651e-06
4.69450722385e-06
4.70339348314e-06
4.71241709896e-06
4.72157783603e-06
4.7308754592e-06
4.74030973343e-06
4.74988042383e-06
4.75958729563e-06
4.76943011419e-06
4.779408645e-06
4.78952265368e-06
4.79977190598e-06
4.81015616778e-06
4.82067520508e-06
4.83132878402e-06
4.84211667086e-06
4.85303863201e-06
4.86409443397e-06
4.87528384341e-06
4.8866066271e-06
4.89806255196e-06
4.90965138503e-06
4.92137289348e-06
4.9332268446e-06
4.94521300583e-06
4.95733114472e-06
4.96958102895e-06
4.98196242635e-06
4.99447510486e-06
5.00711883254e-06
5.01989337761e-06
5.0327985084e-06
5.04583399336e-06
5.05899960109e-06
5.07229510031e-06
5.08572025986e-06
5.09927484873e-06
5.11295863603e-06
5.12677139098e-06
5.14071288295e-06
5.15478288145e-06
5.16898115608e-06
5.18330747662e-06
5.19776161293e-06
5.21234333504e-06
5.22705241307e-06
5.24188861731e-06
5.25685171815e-06
5.27194148612e-06
5.28715769187e-06
5.3025001062e-06
5.31796850002e-06
5.33356264437e-06
5.34928231044e-06
5.36512726951e-06
5.38109729303e-06
5.39719215256e-06
5.41341161979e-06
5.42975546654e-06
5.44622346475e-06
5.46281538652e-06
5.47953100403e-06
5.49637008964e-06
5.51333241581e-06
5.53041775514e-06
5.54762588034e-06
5.56495656427e-06
5.58240957993e-06
5.5999847004e-06
5.61768169895e-06
5.63550034894e-06
5.65344042387e-06
5.67150169736e-06
5.68968394319e-06
5.70798693523e-06
5.7264104475e-06
5.74495425414e-06
5.76361812944e-06
5.78240184779e-06
5.80130518374e-06
5.82032791193e-06
5.83946980717e-06
5.85873064437e-06
5.87811019859e-06
5.897608245e-06
5.91722455891e-06
5.93695891577e-06
5.95681109113e-06
5.97678086069e-06
5.99686800028e-06
6.01707228586e-06
6.0373934935e-06
6.05783139941e-06
6.07838577996e-06
6.09905641159e-06
6.11984307091e-06
6.14074553466e-06
6.16176357969e-06
6.18289698299e-06
6.20414552167e-06
6.22550897299e-06
6.24698711431e-06
6.26857972315e-06
6.29028657714e-06
6.31210745403e-06
6.33404213173e-06
6.35609038825e-06
6.37825200174e-06
6.40052675049e-06
6.4229144129e-06
6.44541476751e-06
6.468027593e-06
6.49075266815e-06
6.51358977189e-06
6.53653868327e-06
6.55959918149e-06
6.58277104585e-06
6.6060540558e-06
6.6294479909e-06
6.65295263087e-06
6.67656775553e-06
6.70029314483e-06
6.72412857887e-06
6.74807383787e-06
6.77212870217e-06
6.79629295225e-06
6.82056636871e-06
6.84494873229e-06
6.86943982385e-06
6.89403942439e-06
6.91874731503e-06
6.94356327701e-06
6.96848709172e-06
6.99351854067e-06
7.01865740549e-06
7.04390346797e-06
7.06925650998e-06
7.09471631356e-06
7.12028266087e-06
7.14595533418e-06
7.17173411592e-06
7.19761878863e-06
7.22360913497e-06
7.24970493776e-06
7.27590597991e-06
7.3022120445e-06
7.3286229147e-06
7.35513837385e-06
7.38175820538e-06
7.40848219287e-06
7.43531012004e-06
7.4622417707e-06
7.48927692884e-06
7.51641537853e-06
7.54365690401e-06
7.57100128962e-06
7.59844831986e-06
7.62599777931e-06
7.65364945274e-06
7.681403125e-06
7.70925858109e-06
7.73721560615e-06
7.76527398542e-06
7.79343350429e-06
7.82169394828e-06
7.85005510302e-06
7.8785167543e-06
7.90707868802e-06
7.9357406902e-06
7.96450254701e-06
7.99336404473e-06
8.02232496979e-06
8.05138510874e-06
8.08054424824e-06
8.10980217511e-06
8.13915867629e-06
8.16861353883e-06
8.19816654993e-06
8.22781749692e-06
8.25756616725e-06
8.2874123485e-06
8.31735582837e-06
8.34739639472e-06
8.3775338355e-06
8.40776793883e-06
8.43809849292e-06
8.46852528613e-06
8.49904810694e-06
8.52966674398e-06
8.56038098599e-06
8.59119062184e-06
8.62209544053e-06
8.6530952312e-06
8.68418978311e-06
8.71537888564e-06
8.74666232832e-06
8.77803990079e-06
8.80951139284e-06
8.84107659436e-06
8.8727352954e-06
8.90448728613e-06
8.93633235683e-06
8.96827029793e-06
9.00030089998e-06
9.03242395367e-06
9.06463924981e-06
9.09694657933e-06
9.12934573331e-06
9.16183650295e-06
9.19441867957e-06
9.22709205463e-06
9.25985641972e-06
9.29271156655e-06
9.32565728698e-06
9.35869337296e-06
9.39181961661e-06
9.42503581017e-06
9.45834174598e-06
9.49173721654e-06
9.52522201447e-06
9.55879593253e-06
9.59245876358e-06
9.62621030064e-06
9.66005033684e-06
9.69397866545e-06
9.72799507987e-06
9.76209937362e-06
9.79629134035e-06
9.83057077384e-06
9.86493746801e-06
9.89939121691e-06
9.93393181469e-06
9.96855905565e-06
1.00032727342e-05
1.0038072645e-05
1.00729585826e-05
1.01079303419e-05
1.01429877179e-05
1.01781305055e-05
1.02133585e-05
1.02486714968e-05
1.02840692912e-05
1.0319551679e-05
1.03551184557e-05
1.03907694174e-05
1.04265043598e-05
1.04623230792e-05
1.04982253718e-05
1.0534211034e-05
1.05702798622e-05
1.0606431653e-05
1.06426662033e-05
1.06789833099e-05
1.07153827698e-05
1.07518643802e-05
1.07884279383e-05
1.08250732416e-05
1.08618000875e-05
1.08986082737e-05
1.09354975981e-05
1.09724678585e-05
1.10095188529e-05
1.10466503796e-05
1.10838622369e-05
1.11211542231e-05
1.11585261369e-05
1.11959777769e-05
1.1233508942e-05
1.12711194311e-05
1.13088090433e-05
1.13465775778e-05
1.1384424834e-05
1.14223506112e-05
1.14603547092e-05
1.14984369276e-05
1.15365970662e-05
1.15748349252e-05
1.16131503045e-05
1.16515430044e-05
1.16900128254e-05
1.17285595678e-05
1.17671830323e-05
1.18058830198e-05
1.1844659331e-05
1.1883511767e-05
1.19224401289e-05
1.19614442181e-05
1.20005238358e-05
1.20396787837e-05
1.20789088635e-05
1.21182138768e-05
1.21575936257e-05
1.21970479121e-05
1.22365765383e-05
1.22761793066e-05
1.23158560194e-05
1.23556064793e-05
1.23954304889e-05
1.24353278512e-05
1.2475298369e-05
1.25153418454e-05
1.25554580837e-05
1.25956468872e-05
1.26359080593e-05
1.26762414038e-05
1.27166467242e-05
1.27571238245e-05
1.27976725086e-05
1.28382925807e-05
1.2878983845e-05
1.29197461059e-05
1.29605791679e-05
1.30014828356e-05
1.30424569139e-05
1.30835012075e-05
1.31246155215e-05
1.31657996611e-05
1.32070534315e-05
1.32483766382e-05
1.32897690866e-05
1.33312305826e-05
1.33727609318e-05
1.34143599401e-05
1.34560274138e-05
1.34977631588e-05
1.35395669816e-05
1.35814386885e-05
1.36233780863e-05
1.36653849814e-05
1.37074591809e-05
1.37496004916e-05
1.37918087207e-05
1.38340836753e-05
1.38764251628e-05
1.39188329907e-05
1.39613069666e-05
1.40038468982e-05
1.40464525934e-05
1.40891238601e-05
1.41318605066e-05
1.41746623411e-05
1.42175291719e-05
1.42604608075e-05
1.43034570566e-05
1.4346517728e-05
1.43896426305e-05
1.44328315732e-05
1.44760843653e-05
1.4519400816e-05
1.45627807347e-05
1.4606223931e-05
1.46497302145e-05
1.46932993952e-05
1.47369312828e-05
1.47806256874e-05
1.48243824193e-05
1.48682012888e-05