/*--------------------------------*- C++ -*----------------------------------*\
| =========                 |                                                 |
| \\      /  F ield         | OpenFOAM: The Open Source CFD Toolbox           |
|  \\    /   O peration     | Version:  dev                                   |
|   \\  /    A nd           | Web:      www.OpenFOAM.org                      |
|    \\/     M anipulation  |                                                 |
\*---------------------------------------------------------------------------*/
FoamFile
{
    version     2.0;
    format      ascii;
    class       volScalarField;
    location    "0";
    object      moment.1.populationBalance;
}
// * * * * * * * * * * * * * * * * * * * * * * * * * * * * * * * * * * * * * //

dimensions      [0 -2 0 0 0 0 0];

internalField   nonuniform List<scalar> 
5000
(
3.199360032e-09
2.8782722592e-08
7.992002e-08
1.56580556832e-07
2.58733649952e-07
3.86348628512e-07
5.39394833952e-07
7.1784162e-07
9.21658352672e-07
1.15081441027e-06
1.40527918339e-06
1.68502207491e-06
1.9900125e-06
2.32021988611e-06
2.67561367299e-06
3.05616331267e-06
3.46183826947e-06
3.89260802e-06
4.34844205315e-06
4.82930987011e-06
5.33518098435e-06
5.86602492163e-06
6.42181122e-06
7.00250942979e-06
7.60808911363e-06
8.23851984643e-06
8.89377121539e-06
9.57381282e-06
1.0278614272e-05
1.10081451956e-05
1.17623752269e-05
1.25412740148e-05
1.334481122e-05
1.41729565159e-05
1.50256795879e-05
1.59029501338e-05
1.68047378637e-05
1.77310125e-05
1.86817437773e-05
1.96569014426e-05
2.06564552551e-05
2.16803749863e-05
2.272863042e-05
2.38011913524e-05
2.48980275917e-05
2.60191089588e-05
2.71644052864e-05
2.833388642e-05
2.9527522217e-05
3.07452825472e-05
3.19871372928e-05
3.32530563482e-05
3.454300962e-05
3.58569670272e-05
3.71948985012e-05
3.85567739853e-05
3.99425634356e-05
4.135223682e-05
4.27857641191e-05
4.42431153255e-05
4.57242604442e-05
4.72291694925e-05
4.87578125e-05
5.03101595085e-05
5.18861805722e-05
5.34858457575e-05
5.51091251431e-05
5.675598882e-05
5.84264068916e-05
6.01203494733e-05
6.18377866932e-05
6.35786886912e-05
6.534302562e-05
6.71307676442e-05
6.89418849408e-05
7.07763476992e-05
7.2634126121e-05
7.451519042e-05
7.64195108224e-05
7.83470575668e-05
8.02978009037e-05
8.22717110964e-05
8.426875842e-05
8.62889131623e-05
8.83321456231e-05
9.03984261146e-05
9.24877249613e-05
9.46000125e-05
9.67352590797e-05
9.88934350618e-05
0.00010107451082
0.00010327845674
0.00010550524322
0.000107754840671
0.000110027219515
0.000112322350188
0.000114640203136
0.00011698074882
0.000119343957711
0.000121729800294
0.000124138247066
0.000126569268534
0.00012902283522
0.000131498917658
0.000133997486392
0.000136518511982
0.000139061964997
0.00014162781602
0.000144216035645
0.000146826594481
0.000149459463145
0.00015211461227
0.0001547920125
0.000157491634491
0.000160213448911
0.000162957426442
0.000165723537777
0.00016851175362
0.00017132204469
0.000174154381717
0.000177008735442
0.000179885076621
0.00018278337602
0.000185703604419
0.000188645732608
0.000191609731392
0.000194595571587
0.00019760322402
0.000200632659533
0.000203683848978
0.000206756763221
0.000209851373138
0.00021296764962
0.000216105563569
0.000219265085898
0.000222446187535
0.000225648839419
0.0002288730125
0.000232118677742
0.000235385806121
0.000238674368625
0.000241984336253
0.00024531568002
0.000248668370949
0.000252042380078
0.000255437678456
0.000258854237146
0.00026229202722
0.000265751019766
0.000269231185882
0.000272732496678
0.000276254923279
0.00027979843682
0.000283363008448
0.000286948609324
0.000290555210619
0.000294182783519
0.00029783129922
0.000301500728932
0.000305191043876
0.000308902215286
0.000312634214408
0.0003163870125
0.000320160580833
0.000323954890691
0.000327769913367
0.00033160562017
0.00033546198242
0.000339338971448
0.0003432365586
0.000347154715231
0.00035109341271
0.00035505262242
0.000359032315753
0.000363032464115
0.000367053038925
0.000371094011612
0.00037515535362
0.000379237036403
0.000383339031429
0.000387461310177
0.00039160384414
0.00039576660482
0.000399949563735
0.000404152692413
0.000408375962396
0.000412619345237
0.0004168828125
0.000421166335765
0.00042546988662
0.000429793436669
0.000434136957527
0.00043850042082
0.000442883798188
0.000447287061281
0.000451710181765
0.000456153131315
0.00046061588162
0.00046509840438
0.000469600671309
0.000474122654131
0.000478664324585
0.00048322565442
0.000487806615398
0.000492407179295
0.000497027317896
0.000501667003
0.00050632620642
0.000511004899978
0.000515703055511
0.000520420644867
0.000525157639905
0.0005299140125
0.000534689734536
0.00053948477791
0.000544299114532
0.000549132716324
0.00055398555522
0.000558857603167
0.000563748832123
0.00056865921406
0.00057358872096
0.00057853732482
0.000583504997647
0.000588491711462
0.000593497438298
0.000598522150198
0.00060356581922
0.000608628417434
0.00061370991692
0.000618810289774
0.000623929508101
0.00062906754402
0.000634224369661
0.000639399957169
0.000644594278697
0.000649807306414
0.0006550390125
0.000660289369147
0.000665558348559
0.000670845922954
0.000676152064561
0.00068147674562
0.000686819938386
0.000692181615125
0.000697561748114
0.000702960309645
0.00070837727202
0.000713812607555
0.000719266288576
0.000724738287424
0.000730228576451
0.00073573712802
0.000741263914509
0.000746808908306
0.000752372081813
0.000757953407442
0.00076355285762
0.000769170404785
0.000774806021386
0.000780459679887
0.000786131352763
0.0007918210125
0.000797528631598
0.000803254182569
0.000808997637937
0.000814758970237
0.00082053815202
0.000826335155845
0.000832149954286
0.000837982519928
0.00084383282537
0.00084970084322
0.000855586546102
0.00086148990665
0.00086741089751
0.000873349491343
0.00087930566082
0.000885279378624
0.000891270617452
0.000897279350011
0.000903305549023
0.00090934918722
0.000915410237348
0.000921488672164
0.000927584464438
0.000933697586952
0.0009398280125
0.000945975713889
0.000952140663939
0.000958322835479
0.000964522201354
0.00097073873442
0.000976972407544
0.000983223193608
0.000989491065503
0.000995775996134
0.00100207795842
0.00100839692529
0.00101473286968
0.00102108576456
0.00102745558288
0.00103384229762
0.00104024588178
0.00104666630836
0.00105310355037
0.00105955758084
0.00106602837282
0.00107251589935
0.0010790201335
0.00108554104835
0.00109207861698
0.0010986328125
0.00110520360802
0.00111179097667
0.00111839489158
0.00112501532591
0.00113165225282
0.00113830564548
0.00114497547709
0.00115166172084
0.00115836434994
0.00116508333762
0.00117181865712
0.00117857028168
0.00118533818456
0.00119212233905
0.00119892271842
0.00120573929597
0.00121257204502
0.00121942093889
0.0012262859509
0.00123316705442
0.00124006422279
0.0012469774294
0.00125390664762
0.00126085185085
0.0012678130125
0.00127479010599
0.00128178310476
0.00128879198224
0.00129581671191
0.00130285726722
0.00130991362166
0.00131698574873
0.00132407362193
0.00133117721478
0.00133829650082
0.00134543145358
0.00135258204663
0.00135974825353
0.00136693004786
0.00137412740322
0.00138134029321
0.00138856869145
0.00139581257157
0.00140307190721
0.00141034667202
0.00141763683968
0.00142494238386
0.00143226327825
0.00143959949656
0.0014469510125
0.0014543177998
0.00146169983221
0.00146909708347
0.00147650952734
0.00148393713762
0.00149137988808
0.00149883775253
0.00150631070479
0.00151379871867
0.00152130176802
0.00152881982669
0.00153635286854
0.00154390086746
0.00155146379731
0.00155904163202
0.00156663434548
0.00157424191163
0.0015818643044
0.00158950149775
0.00159715346562
0.001604820182
0.00161250162087
0.00162019775624
0.00162790856211
0.0016356340125
0.00164337408145
0.00165112874302
0.00165889797125
0.00166668174022
0.00167448002402
0.00168229279674
0.00169012003249
0.0016979617054
0.00170581778959
0.00171368825922
0.00172157308844
0.00172947225142
0.00173738572234
0.00174531347541
0.00175325548482
0.0017612117248
0.00176918216958
0.0017771667934
0.00178516557053
0.00179317847522
0.00180120548176
0.00180924656445
0.00181730169759
0.0018253708555
0.0018334540125
0.00184155114295
0.00184966222119
0.00185778722159
0.00186592611854
0.00187407888642
0.00188224549964
0.00189042593262
0.00189862015977
0.00190682815556
0.00191504989442
0.00192328535082
0.00193153449925
0.00193979731419
0.00194807377014
0.00195636384162
0.00196466750316
0.00197298472929
0.00198131549456
0.00198965977355
0.00199801754082
0.00200638877097
0.00201477343859
0.0020231715183
0.00203158298472
0.0020400078125
0.00204844597628
0.00205689745072
0.00206536221049
0.0020738402303
0.00208233148482
0.00209083594878
0.0020993535969
0.00210788440391
0.00211642834456
0.00212498539362
0.00213355552585
0.00214213871604
0.002150734939
0.00215934416951
0.00216796638242
0.00217660155255
0.00218524965475
0.00219391066388
0.00220258455481
0.00221127130242
0.00221997088161
0.00222868326729
0.00223740843437
0.00224614635779
0.0022548970125
0.00226366037345
0.00227243641561
0.00228122511396
0.00229002644349
0.00229884037922
0.00230766689616
0.00231650596934
0.0023253575738
0.00233422168461
0.00234309827682
0.00235198732552
0.0023608888058
0.00236980269276
0.00237872896153
0.00238766758722
0.00239661854499
0.00240558180998
0.00241455735736
0.00242354516231
0.00243254520002
0.00244155744569
0.00245058187454
0.0024596184618
0.0024686671827
0.0024777280125
0.00248680092646
0.00249588589986
0.00250498290798
0.00251409192613
0.00252321292962
0.00253234589378
0.00254149079394
0.00255064760546
0.00255981630369
0.00256899686402
0.00257818926183
0.00258739347251
0.00259660947149
0.00260583723418
0.00261507673602
0.00262432795246
0.00263359085896
0.002642865431
0.00265215164405
0.00266144947362
0.00267075889522
0.00268007988436
0.00268941241659
0.00269875646745
0.0027081120125
0.00271747902731
0.00272685748746
0.00273624736856
0.00274564864621
0.00275506129602
0.00276448529364
0.0027739206147
0.00278336723487
0.00279282512982
0.00280229427522
0.00281177464677
0.00282126622019
0.00283076897117
0.00284028287547
0.00284980790882
0.00285934404698
0.00286889126571
0.00287844954079
0.00288801884803
0.00289759916322
0.00290719046218
0.00291679272074
0.00292640591474
0.00293603002004
0.0029456650125
0.002955310868
0.00296496756243
0.0029746350717
0.00298431337172
0.00299400243842
0.00300370224774
0.00301341277562
0.00302313399805
0.00303286589098
0.00304260843042
0.00305236159236
0.00306212535282
0.00307189968782
0.0030816845734
0.00309147998562
0.00310128590053
0.00311110229421
0.00312092914275
0.00313076642225
0.00314061410882
0.00315047217858
0.00316034060768
0.00317021937225
0.00318010844847
0.0031900078125
0.00319991744053
0.00320983730876
0.00321976739341
0.00322970767068
0.00323965811682
0.00324961870808
0.00325958942071
0.00326957023098
0.00327956111519
0.00328956204962
0.00329957301059
0.00330959397441
0.00331962491743
0.00332966581598
0.00333971664642
0.00334977738513
0.00335984800848
0.00336992849287
0.00338001881471
0.00339011895042
0.00340022887643
0.00341034856918
0.00342047800512
0.00343061716074
0.0034407660125
0.0034509245369
0.00346109271045
0.00347127050967
0.00348145791108
0.00349165489122
0.00350186142665
0.00351207749395
0.00352230306968
0.00353253813043
0.00354278265282
0.00355303661346
0.00356329998897
0.00357357275599
0.00358385489119
0.00359414637122
0.00360444717276
0.0036147572725
0.00362507664715
0.00363540527341
0.00364574312802
0.00365609018771
0.00366644642923
0.00367681182935
0.00368718636485
0.0036975700125
0.00370796274911
0.0037183645515
0.00372877539649
0.00373919526091
0.00374962412162
0.00376006195547
0.00377050873935
0.00378096445013
0.00379142906472
0.00380190256002
0.00381238491296
0.00382287610048
0.00383337609952
0.00384388488704
0.00385440244002
0.00386492873544
0.00387546375029
0.00388600746159
0.00389655984635
0.00390712088162
0.00391769054443
0.00392826881185
0.00393885566094
0.00394945106879
0.0039600550125
0.00397066746917
0.00398128841591
0.00399191782987
0.00400255568819
0.00401320196802
0.00402385664653
0.00403451970091
0.00404519110834
0.00405587084604
0.00406655889122
0.00407725522111
0.00408795981295
0.00409867264401
0.00410939369154
0.00412012293282
0.00413086034515
0.00414160590584
0.00415235959219
0.00416312138153
0.00417389125122
0.0041846691786
0.00419545514103
0.00420624911589
0.00421705108058
0.0042278610125
0.00423867888906
0.00424950468768
0.00426033838582
0.00427117996091
0.00428202939042
0.00429288665183
0.00430375172263
0.00431462458032
0.00432550520241
0.00433639356642
0.0043472896499
0.00435819343039
0.00436910488545
0.00438002399267
0.00439095072962
0.00440188507391
0.00441282700314
0.00442377649495
0.00443473352696
0.00444569807682
0.0044566701222
0.00446764964077
0.0044786366102
0.00448963100821
0.0045006328125
0.00451164200079
0.00452265855081
0.00453368244032
0.00454471364706
0.00455575214882
0.00456679792337
0.00457785094851
0.00458891120205
0.00459997866181
0.00461105330562
0.00462213511132
0.00463322405678
0.00464432011986
0.00465542327844
0.00466653351042
0.0046776507937
0.00468877510621
0.00469990642586
0.00471104473062
0.00472218999842
0.00473334220724
0.00474450133506
0.00475566735987
0.00476684025968
0.0047780200125
0.00478920659636
0.0048003999893
0.00481160016938
0.00482280711466
0.00483402080322
0.00484524121315
0.00485646832255
0.00486770210955
0.00487894255226
0.00489018962882
0.00490144331739
0.00491270359613
0.00492397044323
0.00493524383685
0.00494652375522
0.00495781017654
0.00496910307903
0.00498040244094
0.00499170824052
0.00500302045602
0.00501433906573
0.00502566404792
0.0050369953809
0.00504833304299
0.0050596770125
0.00507102726777
0.00508238378715
0.005093746549
0.0051051155317
0.00511649071362
0.00512787207317
0.00513925958876
0.0051506532388
0.00516205300174
0.00517345885602
0.0051848707801
0.00519628875245
0.00520771275155
0.00521914275591
0.00523057874402
0.00524202069441
0.00525346858562
0.00526492239618
0.00527638210466
0.00528784768962
0.00529931912965
0.00531079640334
0.0053222794893
0.00533376836614
0.0053452630125
0.00535676340702
0.00536826952836
0.00537978135518
0.00539129886617
0.00540282204002
0.00541435085543
0.00542588529112
0.00543742532582
0.00544897093827
0.00546052210722
0.00547207881145
0.00548364102972
0.00549520874084
0.0055067819236
0.00551836055682
0.00552994461933
0.00554153408996
0.00555312894758
0.00556472917104
0.00557633473922
0.00558794563101
0.00559956182532
0.00561118330105
0.00562281003713
0.0056344420125
0.00564607920611
0.00565772159693
0.00566936916393
0.00568102188609
0.00569267974242
0.00570434271193
0.00571601077364
0.00572768390659
0.00573936208983
0.00575104530242
0.00576273352343
0.00577442673196
0.00578612490708
0.00579782802793
0.00580953607362
0.00582124902328
0.00583296685607
0.00584468955114
0.00585641708766
0.00586814944482
0.00587988660182
0.00589162853785
0.00590337523216
0.00591512666396
0.0059268828125
0.00593864365704
0.00595040917686
0.00596217935123
0.00597395415945
0.00598573358082
0.00599751759467
0.00600930618032
0.00602109931713
0.00603289698444
0.00604469916162
0.00605650582806
0.00606831696315
0.00608013254629
0.0060919525569
0.00610377697442
0.00611560577828
0.00612743894793
0.00613927646286
0.00615111830252
0.00616296444642
0.00617481487406
0.00618666956495
0.00619852849863
0.00621039165463
0.0062222590125
0.00623413055182
0.00624600625215
0.00625788609309
0.00626977005424
0.00628165811522
0.00629355025565
0.00630544645516
0.00631734669342
0.00632925095008
0.00634115920482
0.00635307143733
0.0063649876273
0.00637690775446
0.00638883179852
0.00640075973922
0.00641269155631
0.00642462722956
0.00643656673873
0.00644851006362
0.00646045718402
0.00647240807974
0.00648436273061
0.00649632111646
0.00650828321713
0.0065202490125
0.00653221848243
0.0065441916068
0.00655616836551
0.00656814873848
0.00658013270562
0.00659212024687
0.00660411134216
0.00661610597147
0.00662810411476
0.00664010575202
0.00665211086323
0.00666411942842
0.00667613142758
0.00668814684077
0.00670016564802
0.00671218782939
0.00672421336495
0.00673624223477
0.00674827441896
0.00676030989762
0.00677234865086
0.00678439065883
0.00679643590165
0.00680848435948
0.0068205360125
0.00683259084088
0.00684464882481
0.0068567099445
0.00686877418016
0.00688084151202
0.00689291192033
0.00690498538533
0.00691706188729
0.00692914140649
0.00694122392322
0.00695330941778
0.00696539787049
0.00697748926167
0.00698958357166
0.00700168078082
0.0070137808695
0.00702588381809
0.00703798960697
0.00705009821654
0.00706220962722
0.00707432381943
0.0070864407736
0.0070985604702
0.00711068288967
0.0071228080125
0.00713493581917
0.00714706629018
0.00715919940604
0.00717133514727
0.00718347349442
0.00719561442802
0.00720775792865
0.00721990397686
0.00723205255325
0.00724420363842
0.00725635721297
0.00726851325752
0.00728067175272
0.0072928326792
0.00730499601762
0.00731716174866
0.007329329853
0.00734150031133
0.00735367310436
0.00736584821282
0.00737802561743
0.00739020529894
0.00740238723811
0.0074145714157
0.0074267578125
0.0074389464093
0.00745113718691
0.00746333012614
0.00747552520783
0.00748772241282
0.00749992172196
0.00751212311613
0.0075243265762
0.00753653208306
0.00754873961762
0.0075609491608
0.00757316069352
0.00758537419672
0.00759758965137
0.00760980703842
0.00762202633885
0.00763424753366
0.00764647060385
0.00765869553042
0.00767092229442
0.00768315087687
0.00769538125884
0.00770761342138
0.00771984734557
0.0077320830125
0.00774432040327
0.007756559499
0.0077688002808
0.00778104272983
0.00779328682722
0.00780553255414
0.00781777989177
0.00783002882129
0.0078422793239
0.00785453138082
0.00786678497326
0.00787904008247
0.00789129668969
0.00790355477618
0.00791581432322
0.00792807531209
0.00794033772409
0.00795260154053
0.00796486674273
0.00797713331202
0.00798940122976
0.0080016704773
0.00801394103601
0.00802621288728
0.0080384860125
0.00805076039308
0.00806303601045
0.00807531284603
0.00808759088126
0.00809987009762
0.00811215047656
0.00812443199957
0.00813671464815
0.00814899840379
0.00816128324802
0.00817356916237
0.00818585612838
0.00819814412762
0.00821043314163
0.00822272315202
0.00823501414036
0.00824730608827
0.00825959897736
0.00827189278927
0.00828418750562
0.00829648310808
0.00830877957831
0.008321076898
0.00833337504883
0.0083456740125
0.00835797377073
0.00837027430526
0.00838257559781
0.00839487763014
0.00840718038402
0.00841948384122
0.00843178798353
0.00844409279276
0.00845639825071
0.00846870433922
0.00848101104012
0.00849331833526
0.0085056262065
0.00851793463573
0.00853024360482
0.00854255309568
0.00855486309022
0.00856717357036
0.00857948451805
0.00859179591522
0.00860410774384
0.00861641998589
0.00862873262335
0.00864104563822
0.0086533590125
0.00866567272823
0.00867798676743
0.00869030111215
0.00870261574446
0.00871493064642
0.00872724580012
0.00873956118766
0.00875187679113
0.00876419259268
0.00877650857442
0.0087888247185
0.00880114100709
0.00881345742235
0.00882577394646
0.00883809056162
0.00885040725004
0.00886272399393
0.00887504077552
0.00888735757707
0.00889967438082
0.00891199116905
0.00892430792403
0.00893662462806
0.00894894126344
0.0089612578125
0.00897357425756
0.00898589058096
0.00899820676505
0.00901052279222
0.00902283864482
0.00903515430526
0.00904746975594
0.00905978497927
0.00907209995768
0.00908441467362
0.00909672910953
0.00910904324788
0.00912135707116
0.00913367056183
0.00914598370242
0.00915829647543
0.00917060886339
0.00918292084884
0.00919523241433
0.00920754354242
0.00921985421569
0.00923216441673
0.00924447412813
0.00925678333251
0.0092690920125
0.00928140015073
0.00929370772985
0.00930601473252
0.00931832114141
0.00933062693922
0.00934293210864
0.00935523663238
0.00936754049316
0.00937984367373
0.00939214615682
0.0094044479252
0.00941674896164
0.00942904924892
0.00944134876985
0.00945364750722
0.00946594544387
0.00947824256262
0.00949053884632
0.00950283427783
0.00951512884002
0.00952742251577
0.00953971528798
0.00955200713956
0.00956429805342
0.0095765880125
0.00958887699974
0.0096011649981
0.00961345199054
0.00962573796005
0.00963802288962
0.00965030676226
0.00966258956098
0.00967487126882
0.00968715186881
0.00969943134402
0.00971170967751
0.00972398685235
0.00973626285165
0.0097485376585
0.00976081125602
0.00977308362734
0.0097853547556
0.00979762462396
0.00980989321557
0.00982216051362
0.0098344265013
0.0098466911618
0.00985895447835
0.00987121643417
0.0098834770125
0.00989573619659
0.0099079939697
0.00992025031512
0.00993250521613
0.00994475865602
0.00995701061812
0.00996926108574
0.00998151004223
0.00999375747094
0.0100060033552
0.0100182476785
0.010030490424
0.0100427315753
0.0100549711158
0.0100672090288
0.0100794452979
0.0100916799063
0.0101039128378
0.0101161440756
0.0101283736032
0.0101406014043
0.0101528274622
0.0101650517605
0.0101772742828
0.0101894950125
0.0102017139333
0.0102139310287
0.0102261462823
0.0102383596776
0.0102505711984
0.0102627808282
0.0102749885507
0.0102871943494
0.0102993982081
0.0103116001104
0.01032380004
0.0103359979807
0.010348193916
0.0103603878297
0.0103725797056
0.0103847695274
0.0103969572789
0.0104091429437
0.0104213265058
0.0104335079488
0.0104456872567
0.0104578644131
0.010470039402
0.0104822122072
0.0104943828125
0.0105065512018
0.010518717359
0.010530881268
0.0105430429126
0.0105552022768
0.0105673593446
0.0105795140997
0.0105916665263
0.0106038166083
0.0106159643296
0.0106281096743
0.0106402526263
0.0106523931696
0.0106645312883
0.0106766669664
0.010688800188
0.0107009309371
0.0107130591978
0.0107251849542
0.0107373081904
0.0107494288905
0.0107615470386
0.0107736626189
0.0107857756155
0.0107978860125
0.0108099937942
0.0108220989447
0.0108342014482
0.010846301289
0.0108583984512
0.0108704929191
0.010882584677
0.010894673709
0.0109067599996
0.0109188435328
0.0109309242931
0.0109430022648
0.0109550774322
0.0109671497795
0.0109792192912
0.0109912859516
0.0110033497451
0.0110154106561
0.0110274686689
0.011039523768
0.0110515759378
0.0110636251627
0.0110756714271
0.0110877147156
0.0110997550125
0.0111117923024
0.0111238265697
0.0111358577991
0.0111478859748
0.0111599110816
0.011171933104
0.0111839520264
0.0111959678335
0.0112079805098
0.01121999004
0.0112319964086
0.0112439996003
0.0112560109744
0.0112680987095
0.0112802740253
0.0112925367612
0.0113048867564
0.0113173238503
0.0113298478822
0.0113424586919
0.0113551561188
0.0113679400027
0.0113808101835
0.011393766501
0.0114068087952
0.0114199369063
0.0114331506743
0.0114464499396
0.0114598345425
0.0114733043234
0.0114868591229
0.0115004987817
0.0115142231403
0.0115280320397
0.0115419253207
0.0115559028242
0.0115699643915
0.0115841098636
0.0115983390818
0.0116126518874
0.0116270481219
0.0116415276268
0.0116560902437
0.0116707358143
0.0116854641804
0.0117002751839
0.0117151686667
0.011730144471
0.0117452024388
0.0117603424125
0.0117755642343
0.0117908677467
0.0118062527921
0.0118217192133
0.0118372668528
0.0118528955535
0.0118686051583
0.01188439551
0.0119002664518
0.0119162178268
0.0119322494782
0.0119483612493
0.0119645529836
0.0119808245246
0.0119971757159
0.012013606401
0.0120301164239
0.0120467056284
0.0120633738584
0.012080120958
0.0120969467712
0.0121138511424
0.0121308339158
0.0121478949359
0.0121650340471
0.012182251094
0.0121995459212
0.0122169183737
0.0122343682961
0.0122518955335
0.0122694999308
0.0122871813332
0.0123049395859
0.0123227745343
0.0123406860236
0.0123586738994
0.0123767380073
0.0123948781929
0.0124130943019
0.0124313861802
0.0124497536738
0.0124681966286
0.0124867148909
0.0125053083066
0.0125239767223
0.0125427199841
0.0125615379387
0.0125804304326
0.0125993973124
0.0126184384248
0.0126375536168
0.0126567427352
0.012676005627
0.0126953421393
0.0127147521194
0.0127342354144
0.0127537918719
0.0127734213391
0.0127931236638
0.0128128986935
0.0128327462759
0.0128526662589
0.0128726584904
0.0128927228184
0.0129128590909
0.0129330671562
0.0129533468626
0.0129736980583
0.0129941205919
0.0130146143119
0.0130351790668
0.0130558147055
0.0130765210767
0.0130972980294
0.0131181454125
0.0131390630751
0.0131600508664
0.0131811086356
0.0132022362321
0.0132234335054
0.0132447003049
0.0132660364803
0.0132874418813
0.0133089163576
0.0133304597593
0.0133520719362
0.0133737527384
0.0133955020161
0.0134173196195
0.0134392053991
0.0134611592051
0.0134831808881
0.0135052702988
0.0135274272878
0.013549651706
0.0135719434041
0.0135943022332
0.0136167280444
0.0136392206887
0.0136617800174
0.0136844058819
0.0137070981336
0.0137298566239
0.0137526812045
0.0137755717271
0.0137985280434
0.0138215500053
0.0138446374648
0.0138677902739
0.0138910082847
0.0139142913495
0.0139376393207
0.0139610520505
0.0139845293916
0.0140080711965
0.0140316773178
0.0140553476084
0.0140790819211
0.0141028801088
0.0141267420247
0.0141506675217
0.0141746564532
0.0141987086724
0.0142228240328
0.0142470023878
0.014271243591
0.0142955474961
0.0143199139568
0.0143443428271
0.0143688339607
0.0143933872118
0.0144180024344
0.0144426794828
0.0144674182113
0.0144922184743
0.0145170801261
0.0145420030215
0.0145669870151
0.0145920319616
0.0146171377158
0.0146423041326
0.0146675310672
0.0146928183746
0.01471816591
0.0147435735286
0.0147690410859
0.0147945684374
0.0148201554385
0.014845801945
0.0148715078125
0.0148972728969
0.0149230970542
0.0149489801402
0.0149749220112
0.0150009225233
0.0150269815327
0.015053098896
0.0150792744694
0.0151055081095
0.0151317996731
0.0151581490168
0.0151845559974
0.0152110204718
0.0152375422971
0.0152641213303
0.0152907574285
0.0153174504492
0.0153442002496
0.0153710066871
0.0153978696193
0.0154247889039
0.0154517643985
0.015478795961
0.0155058834492
0.0155330267211
0.0155602256349
0.0155874800486
0.0156147898206
0.0156421548091
0.0156695748727
0.0156970498697
0.015724579659
0.0157521640991
0.0157798030488
0.0158074963671
0.015835243913
0.0158630455454
0.0158909011235
0.0159188105066
0.015946773554
0.0159747901252
0.0160028600797
0.016030983277
0.0160591595768
0.0160873888391
0.0161156709235
0.0161440056901
0.016172392999
0.0162008327102
0.0162293246841
0.0162578687809
0.0162864648611
0.0163151127852
0.0163438124137
0.0163725636073
0.0164013662269
0.0164302201333
0.0164591251874
0.0164880812503
0.0165170881831
0.016546145847
0.0165752541034
0.0166044128137
0.0166336218393
0.0166628810419
0.0166921902831
0.0167215494247
0.0167509583285
0.0167804168565
0.0168099248707
0.0168394822333
0.0168690888064
0.0168987444523
0.0169284490336
0.0169582024125
0.0169880044518
0.017017855014
0.0170477539619
0.0170777011585
0.0171076964665
0.0171377397491
0.0171678308693
0.0171979696903
0.0172281560755
0.0172583898883
0.017288670992
0.0173189992503
0.0173493745268
0.0173797966852
0.0174102655895
0.0174407811034
0.0174713430911
0.0175019514166
0.0175326059442
0.017563306538
0.0175940530626
0.0176248453823
0.0176556833617
0.0176865668654
0.0177174957582
0.0177484699049
0.0177794891704
0.0178105534197
0.0178416625179
0.0178728163303
0.0179040147219
0.0179352575583
0.0179665447049
0.0179978760272
0.0180292513909
0.0180606706616
0.0180921337053
0.0181236403877
0.0181551905749
0.0181867841329
0.0182184209281
0.0182501008265
0.0182818236945
0.0183135893987
0.0183453978055
0.0183772487815
0.0184091421935
0.0184410779083
0.0184730557927
0.0185050757137
0.0185371375385
0.0185692411341
0.0186013863679
0.0186335731072
0.0186658012193
0.0186980705718
0.0187303810324
0.0187627324688
0.0187951247486
0.0188275577399
0.0188600313105
0.0188925453286
0.0189250996622
0.0189576941797
0.0189903287494
0.0190230032397
0.019055717519
0.0190884714561
0.0191212649195
0.0191540977782
0.0191869699008
0.0192198811565
0.0192528314142
0.0192858205431
0.0193188484125
0.0193519148916
0.0193850198499
0.0194181631568
0.019451344682
0.0194845642951
0.0195178218659
0.0195511172643
0.0195844503602
0.0196178210236
0.0196512291248
0.0196846745338
0.0197181571211
0.019751676757
0.019785233312
0.0198188266567
0.0198524566617
0.0198861231979
0.019919826136
0.0199535653471
0.0199873407021
0.0200211520721
0.0200549993285
0.0200888823424
0.0201228009852
0.0201567551285
0.0201907446439
0.0202247694029
0.0202588292773
0.020292924139
0.0203270538599
0.020361218312
0.0203954173674
0.0204296508983
0.0204639187771
0.020498220876
0.0205325570676
0.0205669272244
0.0206013312191
0.0206357689244
0.0206702402132
0.0207047449583
0.0207392830328
0.0207738543097
0.0208084586623
0.0208430959639
0.0208777660877
0.0209124689073
0.0209472042962
0.0209819721281
0.0210167722767
0.0210516046158
0.0210864690192
0.0211213653611
0.0211562935155
0.0211912533566
0.0212262447586
0.0212612675959
0.021296321743
0.0213314070744
0.0213665234647
0.0214016707886
0.021436848921
0.0214720577367
0.0215072971108
0.0215425669183
0.0215778670343
0.0216131973342
0.0216485576933
0.021683947987
0.0217193680909
0.0217548178806
0.0217902972317
0.0218258060202
0.0218613441218
0.0218969114125
0.0219325077685
0.0219681330658
0.0220037871808
0.0220394699897
0.0220751992201
0.0221110075512
0.0221468955118
0.0221828629388
0.0222189096918
0.0222550356527
0.0222912407258
0.0223275248376
0.0223638879368
0.0224003299939
0.0224368510016
0.0224734509741
0.0225101299473
0.0225468879787
0.0225837251474
0.0226206415535
0.0226576373187
0.0226947125855
0.0227318675175
0.0227691022994
0.0228064171363
0.0228438122545
0.0228812879003
0.0229188443409
0.0229564818637
0.0229942007763
0.0230320014066
0.0230698841024
0.0231078492315
0.0231458971815
0.0231840283597
0.0232222431932
0.0232605421283
0.023298925631
0.0233373941864
0.0233759482989
0.0234145884921
0.0234533153083
0.023492129309
0.0235310310742
0.0235700212029
0.0236091003124
0.0236482690387
0.023687528036
0.0237268779768
0.0237663195519
0.0238058534702
0.0238454804582
0.0238852012608
0.0239250166403
0.0239649273768
0.024004934268
0.0240450381289
0.0240852397922
0.0241255401075
0.0241659399419
0.0242064401794
0.0242470417209
0.0242877454845
0.0243285524046
0.0243694634328
0.024410479537
0.0244516017016
0.0244928309274
0.0245341682317
0.0245756146476
0.0246171712247
0.0246588390285
0.0247006191403
0.0247425126573
0.0247845206924
0.0248266443742
0.0248688848467
0.0249112432695
0.0249537208175
0.0249963186809
0.0250390380648
0.0250818801897
0.0251248462908
0.0251679376185