/*--------------------------------*- C++ -*----------------------------------*\
| =========                 |                                                 |
| \\      /  F ield         | OpenFOAM: The Open Source CFD Toolbox           |
|  \\    /   O peration     | Version:  dev                                   |
|   \\  /    A nd           | Web:      www.OpenFOAM.org                      |
|    \\/     M anipulation  |                                                 |
\*---------------------------------------------------------------------------*/
FoamFile
{
    version     2.0;
    format      ascii;
    class       volScalarField;
    location    "0";
    object      moment.0.populationBalance;
}
// * * * * * * * * * * * * * * * * * * * * * * * * * * * * * * * * * * * * * //

dimensions      [0 -3 0 0 0 0 0];

internalField   nonuniform List<scalar> 
5000
(
1.599680016e-07
1.4391361296e-06
3.996001e-06
7.8290278416e-06
1.29366824976e-05
1.93174314256e-05
2.69697416976e-05
3.5892081e-05
4.60829176336e-05
5.75407205136e-05
7.02639591696e-05
8.42511037456e-05
9.9500625e-05
0.000116010994306
0.00013378068365
0.000152808165634
0.000173091913474
0.000194630401
0.000217422102658
0.000241465493506
0.000266759049218
0.000293301246082
0.000321090561
0.00035012547149
0.000380404455682
0.000411925992322
0.00044468856077
0.000478690641
0.000513930713602
0.000550407259778
0.000588118761346
0.000627063700738
0.000667240561
0.000708647825794
0.000751283979394
0.00079514750669
0.000840236893186
0.000886550625
0.000934087188866
0.00098284507213
0.00103282276275
0.00108401874931
0.001136431521
0.00119005956762
0.00124490137959
0.00130095544794
0.00135822026432
0.001416694321
0.00147637611085
0.00153726412736
0.00159935686464
0.00166265281741
0.001727150481
0.00179284835136
0.00185974492506
0.00192783869927
0.00199712817178
0.002067611841
0.00213928820595
0.00221215576627
0.00228621302221
0.00236145847463
0.002437890625
0.00251550797543
0.00259430902861
0.00267429228787
0.00275545625715
0.002837799441
0.00292132034458
0.00300601747367
0.00309188933466
0.00317893443456
0.003267151281
0.00335653838221
0.00344709424704
0.00353881738496
0.00363170630605
0.003725759521
0.00382097554112
0.00391735287834
0.00401489004519
0.00411358555482
0.004213437921
0.00431444565811
0.00441660728115
0.00451992130573
0.00462438624807
0.004730000625
0.00483676295399
0.00494467175309
0.00505372554099
0.00516392283699
0.005275262161
0.00538774203354
0.00550136097575
0.00561611750938
0.0057320101568
0.005849037441
0.00596719788557
0.00608649001472
0.00620691235328
0.00632846342669
0.006451141761
0.00657494588288
0.00669987431962
0.00682592559911
0.00695309824986
0.007081390801
0.00721080178227
0.00734132972403
0.00747297315725
0.00760573061351
0.007739600625
0.00787458172455
0.00801067244557
0.00814787132211
0.00828617688883
0.008425587681
0.0085661022345
0.00870771908583
0.0088504367721
0.00899425383104
0.009139168801
0.00928518022093
0.0094322866304
0.0095804865696
0.00972977857933
0.009880161201
0.0100316329766
0.0101841924489
0.010337838161
0.0104925686569
0.010648382481
0.0108052781784
0.0109632542949
0.0111223093768
0.0112824419709
0.011443650625
0.0116059338871
0.011769290306
0.0119337184312
0.0120992168127
0.012265784001
0.0124334185475
0.0126021190039
0.0127718839228
0.0129427118573
0.013114601361
0.0132875509883
0.0134615592941
0.0136366248339
0.013812746164
0.013989921841
0.0141681504224
0.0143474304662
0.0145277605309
0.0147091391759
0.014891564961
0.0150750364466
0.0152595521938
0.0154451107643
0.0156317107204
0.015819350625
0.0160080290417
0.0161977445345
0.0163884956684
0.0165802810085
0.016773099121
0.0169669485724
0.01716182793
0.0173577357615
0.0175546706355
0.017752631121
0.0179516157876
0.0181516232058
0.0183526519462
0.0185547005806
0.018757767681
0.0189618518202
0.0191669515715
0.0193730655089
0.019580192207
0.019788330241
0.0199974781868
0.0202076346207
0.0204187981198
0.0206309672618
0.020844140625
0.0210583167882
0.021273494331
0.0214896718335
0.0217068478764
0.021925021041
0.0221441899094
0.0223643530641
0.0225855090883
0.0228076565658
0.023030794081
0.023254920219
0.0234800335654
0.0237061327066
0.0239332162292
0.024161282721
0.0243903307699
0.0246203589647
0.0248513658948
0.02508335015
0.025316310321
0.0255502449989
0.0257851527756
0.0260210322433
0.0262578819953
0.026495700625
0.0267344867268
0.0269742388955
0.0272149557266
0.0274566358162
0.027699277761
0.0279428801583
0.0281874416061
0.028432960703
0.028679436048
0.028926866241
0.0291752498824
0.0294245855731
0.0296748719149
0.0299261075099
0.030178290961
0.0304314208717
0.030685495846
0.0309405144887
0.0311964754051
0.031453377201
0.0317112184831
0.0319699978584
0.0322297139348
0.0324903653207
0.032751950625
0.0330144684573
0.033277917428
0.0335422961477
0.033807603228
0.034073837281
0.0343409969193
0.0346090807562
0.0348780874057
0.0351480154822
0.035418863601
0.0356906303777
0.0359633144288
0.0362369143712
0.0365114288225
0.036786856401
0.0370631957254
0.0373404454153
0.0376186040906
0.0378976703721
0.038177642881
0.0384585202392
0.0387403010693
0.0390229839944
0.0393065676381
0.039591050625
0.0398764315799
0.0401627091284
0.0404498818968
0.0407379485119
0.041026907601
0.0413167577923
0.0416074977143
0.0418991259964
0.0421916412685
0.042485042161
0.0427793273051
0.0430744953325
0.0433705448755
0.0436674745672
0.043965283041
0.0442639689312
0.0445635308726
0.0448639675005
0.0451652774511
0.045467459361
0.0457705118674
0.0460744336082
0.0463792232219
0.0466848793476
0.046991400625
0.0472987856945
0.0476070331969
0.047916141774
0.0482261100677
0.048536936721
0.0488486203772
0.0491611596804
0.0494745532751
0.0497887998067
0.050103897921
0.0504198462644
0.0507366434842
0.0510542882278
0.0513727791438
0.051692114881
0.052012294089
0.0523333154179
0.0526551775185
0.0529778790422
0.053301418641
0.0536257949676
0.0539510066751
0.0542770524174
0.054603930849
0.054931640625
0.055260180401
0.0555895488334
0.0559197445791
0.0562507662956
0.056582612641
0.0569152822742
0.0572487738545
0.0575830860419
0.057918217497
0.058254166881
0.0585909328558
0.0589285140838
0.0592669092282
0.0596061169524
0.059946135921
0.0602869647987
0.0606286022511
0.0609710469444
0.0613142975452
0.061658352721
0.0620032111397
0.06234887147
0.0626953323809
0.0630425925425
0.063390650625
0.0637395052996
0.0640891552379
0.0644395991122
0.0647908355954
0.065142863361
0.0654956810831
0.0658492874365
0.0662036810966
0.0665588607392
0.066914825041
0.0672715726792
0.0676291023315
0.0679874126765
0.0683465023931
0.068706370161
0.0690670146605
0.0694284345724
0.0697906285783
0.0701535953603
0.070517333601
0.0708818419839
0.0712471191928
0.0716131639124
0.0719799748279
0.072347550625
0.0727158899901
0.0730849916104
0.0734548541733
0.0738254763672
0.074196856881
0.0745689944041
0.0749418876266
0.0753155352393
0.0756899359334
0.076065088401
0.0764409913345
0.0768176434272
0.0771950433728
0.0775731898657
0.077952081601
0.0783317172742
0.0787120955817
0.0790932152202
0.0794750748873
0.079857673281
0.0802410091
0.0806250810437
0.081009887812
0.0813954281053
0.081781700625
0.0821687040727
0.0825564371508
0.0829448985624
0.0833340870111
0.083724001201
0.0841146398371
0.0845060016247
0.08489808527
0.0852908894797
0.085684412961
0.0860786544219
0.0864736125709
0.0868692861171
0.0872656737704
0.087662774241
0.08806058624
0.088459108479
0.0888583396701
0.0892582785263
0.089658923761
0.0900602740882
0.0904623282226
0.0908650848795
0.0912685427748
0.091672700625
0.0920775571473
0.0924831110593
0.0928893610796
0.0932963059269
0.093703944321
0.094112274982
0.0945212966308
0.0949310079887
0.0953414077779
0.095752494721
0.0961642675412
0.0965767249626
0.0969898657094
0.097403688507
0.097818192081
0.0982333751578
0.0986492364643
0.0990657747281
0.0994829886774
0.099900877041
0.100319438548
0.100738671929
0.101158575915
0.101579149236
0.102000390625
0.102422298814
0.102844872536
0.103268110525
0.103692011515
0.104116574241
0.104541797439
0.104967679845
0.105394220195
0.105821417228
0.106249269681
0.106677776293
0.107106935802
0.10753674695
0.107967208476
0.108398319121
0.108830077628
0.109262482738
0.109695533194
0.11012922774
0.110563565121
0.110998544081
0.111434163364
0.111870421719
0.11230731789
0.112744850625
0.113183018672
0.11362182078
0.114061255698
0.114501322175
0.114942018961
0.115383344808
0.115825298467
0.11626787869
0.11671108423
0.117154913841
0.117599366276
0.11804444029
0.118490134638
0.118936448076
0.119383379361
0.119830927249
0.120279090499
0.120727867868
0.121177258115
0.121627260001
0.122077872285
0.122529093727
0.12298092309
0.123433359135
0.123886400625
0.124340046323
0.124794294993
0.125249145399
0.125704596306
0.126160646481
0.126617294689
0.127074539697
0.127532380273
0.127990815185
0.128449843201
0.128909463091
0.129369673626
0.129830473574
0.130291861709
0.130753836801
0.131216397623
0.131679542948
0.13214327155
0.132607582202
0.133072473681
0.133537944761
0.134003994218
0.13447062083
0.134937823373
0.135405600625
0.135873951366
0.136342874373
0.136812368428
0.13728243231
0.137753064801
0.138224264682
0.138696030735
0.139168361744
0.139641256491
0.140114713761
0.140588732339
0.141063311009
0.141538448559
0.142014143774
0.142490395441
0.142967202349
0.143444563285
0.14392247704
0.144400942402
0.144879958161
0.145359523109
0.145839636037
0.146320295737
0.146801501002
0.147283250625
0.1477655434
0.148248378122
0.148731753585
0.149215668586
0.149700121921
0.150185112387
0.150670638781
0.151156699902
0.151643294549
0.152130421521
0.152618079618
0.153106267641
0.153594984391
0.15408422867
0.154573999281
0.155064295027
0.155555114711
0.156046457138
0.156538321113
0.157030705441
0.157523608929
0.158017030384
0.158510968613
0.159005422423
0.159500390625
0.159995872027
0.160491865438
0.16098836967
0.161485383534
0.161982905841
0.162480935404
0.162979471035
0.163478511549
0.163978055759
0.164478102481
0.164978650529
0.165479698721
0.165981245871
0.166483290799
0.166985832321
0.167488869256
0.167992400424
0.168496424644
0.169000940736
0.169505947521
0.170011443821
0.170517428459
0.171023900256
0.171530858037
0.172038300625
0.172546226845
0.173054635523
0.173563525483
0.174072895554
0.174582744561
0.175093071333
0.175603874697
0.176115153484
0.176626906522
0.177139132641
0.177651830673
0.178164999448
0.1786786378
0.179192744559
0.179707318561
0.180222358638
0.180737863625
0.181253832358
0.181770263671
0.182287156401
0.182804509385
0.183322321462
0.183840591468
0.184359318242
0.184878500625
0.185398137456
0.185918227575
0.186438769825
0.186959763046
0.187481206081
0.188003097774
0.188525436967
0.189048222506
0.189571453236
0.190095128001
0.190619245648
0.191143805024
0.191668804976
0.192194244352
0.192720122001
0.193246436772
0.193773187514
0.194300373079
0.194827992318
0.195356044081
0.195884527222
0.196413440593
0.196942783047
0.19747255344
0.198002750625
0.198533373458
0.199064420796
0.199595891494
0.200127784409
0.200660098401
0.201192832327
0.201725985046
0.202259555417
0.202793542302
0.203327944561
0.203862761055
0.204397990648
0.2049336322
0.205469684577
0.206006146641
0.206543017258
0.207080295292
0.207617979609
0.208156069077
0.208694562561
0.20923345893
0.209772757051
0.210312455795
0.210852554029
0.211393050625
0.211933944453
0.212475234384
0.213016919291
0.213558998045
0.214101469521
0.214644332592
0.215187586132
0.215731229016
0.21627526012
0.216819678321
0.217364482495
0.217909671519
0.218455244273
0.219001199633
0.219547536481
0.220094253695
0.220641350157
0.221188824747
0.221736676348
0.222284903841
0.22283350611
0.223382482038
0.22393183051
0.224481550411
0.225031640625
0.225582100039
0.226132927541
0.226684122016
0.227235682353
0.227787607441
0.228339896169
0.228892547426
0.229445560103
0.229998933091
0.230552665281
0.231106755566
0.231661202839
0.232216005993
0.232771163922
0.233326675521
0.233882539685
0.23443875531
0.234995321293
0.235552236531
0.236109499921
0.236667110362
0.237225066753
0.237783367994
0.238342012984
0.238901000625
0.239460329818
0.240019999465
0.240580008469
0.241140355733
0.241701040161
0.242262060658
0.242823416128
0.243385105477
0.243947127613
0.244509481441
0.24507216587
0.245635179807
0.246198522161
0.246762191843
0.247326187761
0.247890508827
0.248455153952
0.249020122047
0.249585412026
0.250151022801
0.250716953286
0.251283202396
0.251849769045
0.25241665215
0.252983850625
0.253551363389
0.254119189358
0.25468732745
0.255255776585
0.255824535681
0.256393603658
0.256962979438
0.25753266194
0.258102650087
0.258672942801
0.259243539005
0.259814437622
0.260385637578
0.260957137795
0.261528937201
0.262101034721
0.262673429281
0.263246119809
0.263819105233
0.264392384481
0.264965956482
0.265539820167
0.266113974465
0.266688418307
0.267263150625
0.267838170351
0.268413476418
0.268989067759
0.269564943309
0.270141102001
0.270717542771
0.271294264556
0.271871266291
0.272448546913
0.273026105361
0.273603940572
0.274182051486
0.274760437042
0.27533909618
0.275918027841
0.276497230966
0.277076704498
0.277656447379
0.278236458552
0.278816736961
0.279397281551
0.279978091266
0.280559165052
0.281140501856
0.281722100625
0.282303960306
0.282886079847
0.283468458196
0.284051094305
0.284633987121
0.285217135596
0.285800538682
0.28638419533
0.286968104492
0.287552265121
0.288136676172
0.288721336598
0.289306245354
0.289891401397
0.290476803681
0.291062451164
0.291648342803
0.292234477557
0.292820854383
0.293407472241
0.293994330091
0.294581426893
0.295168761608
0.295756333198
0.296344140625
0.296932182852
0.297520458843
0.298108967561
0.298697707972
0.299286679041
0.299875879733
0.300465309016
0.301054965856
0.301644849222
0.302234958081
0.302825291403
0.303415848157
0.304006627315
0.304597627845
0.305188848721
0.305780288914
0.306371947397
0.306963823143
0.307555915126
0.308148222321
0.308740743703
0.309333478248
0.309926424931
0.310519582731
0.311112950625
0.311706527591
0.312300312607
0.312894304655
0.313488502712
0.314082905761
0.314677512782
0.315272322758
0.315867334671
0.316462547504
0.317057960241
0.317653571866
0.318249381365
0.318845387723
0.319441589926
0.320037986961
0.320634577816
0.321231361478
0.321828336937
0.322425503181
0.323022859201
0.323620403987
0.32421813653
0.324816055823
0.325414160857
0.326012450625
0.326610924121
0.32720958034
0.327808418276
0.328407436924
0.329006635281
0.329606012343
0.330205567108
0.330805298574
0.331405205738
0.332005287601
0.332605543162
0.333205971421
0.333806571379
0.334407342039
0.335008282401
0.335609391469
0.336210668247
0.336812111739
0.337413720948
0.338015494881
0.338617432543
0.339219532941
0.339821795082
0.340424217974
0.341026800625
0.341629542044
0.34223244124
0.342835497225
0.343438709008
0.344042075601
0.344645596016
0.345249269266
0.345853094364
0.346457070324
0.347061196161
0.347665470889
0.348269893524
0.348874463084
0.349479178583
0.350084039041
0.350689043475
0.351294190905
0.351899480349
0.352504910827
0.353110481361
0.353716190971
0.35432203868
0.35492802351
0.355534144484
0.356140400625
0.356746790958
0.357353314509
0.357959970302
0.358566757364
0.359173674721
0.359780721401
0.360387896432
0.360995198843
0.361602627663
0.362210181921
0.362817860648
0.363425662876
0.364033587636
0.36464163396
0.365249800881
0.365858087433
0.36646649265
0.367075015566
0.367683655218
0.368292410641
0.368901280872
0.369510264947
0.370119361905
0.370728570785
0.371337890625
0.371947320465
0.372556859345
0.373166506307
0.373776260392
0.374386120641
0.374996086098
0.375606155806
0.37621632881
0.376826604153
0.377436980881
0.37804745804
0.378658034676
0.379268709836
0.379879482568
0.380490351921
0.381101316943
0.381712376683
0.382323530192
0.382934776521
0.383546114721
0.384157543844
0.384769062942
0.385380671069
0.385992367278
0.386604150625
0.387216020164
0.38782797495
0.38844001404
0.389052136491
0.389664341361
0.390276627707
0.390888994589
0.391501441065
0.392113966195
0.392726569041
0.393339248663
0.393952004124
0.394564834484
0.395177738809
0.395790716161
0.396403765604
0.397016886204
0.397630077026
0.398243337136
0.398856665601
0.399470061488
0.400083523865
0.4006970518
0.401310644364
0.401924300625
0.402538019654
0.403151800522
0.403765642301
0.404379544063
0.404993504881
0.405607523828
0.406221599979
0.406835732407
0.407449920189
0.408064162401
0.408678458119
0.409292806419
0.409907206381
0.410521657082
0.411136157601
0.411750707018
0.412365304414
0.412979948868
0.413594639463
0.414209375281
0.414824155404
0.415438978916
0.4160538449
0.416668752441
0.417283700625
0.417898688537
0.418513715263
0.41912877989
0.419743881507
0.420359019201
0.420974192061
0.421589399177
0.422204639638
0.422819912536
0.423435216961
0.424050552006
0.424665916763
0.425281310325
0.425896731786
0.426512180241
0.427127654784
0.427743154511
0.428358678518
0.428974225902
0.429589795761
0.430205387192
0.430820999295
0.431436631167
0.432052281911
0.432667950625
0.433283636411
0.433899338371
0.434515055608
0.435130787223
0.435746532321
0.436362290006
0.436978059383
0.437593839557
0.438209629634
0.438825428721
0.439441235925
0.440057050355
0.440672871117
0.441288697323
0.441904528081
0.442520362502
0.443136199696
0.443752038776
0.444367878853
0.444983719041
0.445599558452
0.446215396201
0.446831231403
0.447447063172
0.448062890625
0.448678712878
0.449294529048
0.449910338253
0.450526139611
0.451141932241
0.451757715263
0.452373487797
0.452989248963
0.453604997884
0.454220733681
0.454836455477
0.455452162394
0.456067853558
0.456683528092
0.457299185121
0.457914823772
0.45853044317
0.459146042442
0.459761620716
0.460377177121
0.460992710785
0.461608220836
0.462223706407
0.462839166626
0.463454600625
0.464070007536
0.464685386492
0.465300736626
0.465916057071
0.466531346961
0.467146605432
0.467761831619
0.468377024658
0.468992183686
0.469607307841
0.47022239626
0.470837448082
0.471452462446
0.472067438492
0.472682375361
0.473297272193
0.473912128131
0.474526942316
0.475141713891
0.475756442001
0.476371125789
0.476985764399
0.477600356978
0.478214902671
0.478829400625
0.479443849987
0.480058249905
0.480672599527
0.481286898002
0.481901144481
0.482515338113
0.483129478049
0.483743563441
0.484357593441
0.484971567201
0.485585483875
0.486199342618
0.486813142582
0.487426882925
0.488040562801
0.488654181367
0.48926773778
0.489881231198
0.490494660778
0.491108025681
0.491721325065
0.49233455809
0.492947723918
0.493560821709
0.494173850625
0.49478680983
0.495399698485
0.496012515756
0.496625260806
0.497237932801
0.497850530906
0.498463054287
0.499075502112
0.499687873547
0.500300167761
0.500912383923
0.501524521201
0.502136578767
0.50274855579
0.503360451441
0.503972264893
0.504583995317
0.505195641888
0.505807203778
0.506418680161
0.507030070213
0.507641373109
0.508252588025
0.508863714138
0.509474750625
0.510085696664
0.510696551434
0.511307314113
0.511917983882
0.512528559921
0.513139041411
0.513749427533
0.51435971747
0.514969910405
0.515580005521
0.516190002002
0.516799899033
0.517409695799
0.518019391486
0.518628985281
0.519238476371
0.519847863943
0.520457147186
0.521066325289
0.521675397441
0.522284362833
0.522893220656
0.523501970101
0.524110610359
0.524719140625
0.525327560091
0.52593586795
0.526544063398
0.52715214563
0.527760113841
0.528367967228
0.528975704987
0.529583326317
0.530190830415
0.530798216481
0.531405483713
0.532012631313
0.532619658479
0.533226564415
0.533833348321
0.5344400094
0.535046546856
0.535652959892
0.536259247712
0.536865409521
0.537471444525
0.538077351931
0.538683130944
0.539288780773
0.539894300625
0.540499689709
0.541104947235
0.541710072411
0.54231506445
0.542919922561
0.543524645957
0.544129233849
0.544733685452
0.545337999978
0.545942176641
0.546546214657
0.54715011324
0.547753871608
0.548357488975
0.548960964561
0.549564297582
0.550167487257
0.550770532806
0.551373433447
0.551976188401
0.552578796889
0.553181258134
0.553783571356
0.554385735778
0.554987750625
0.55558961512
0.556191328487
0.556792889953
0.557394298742
0.557995554081
0.558596655198
0.559197601319
0.559798391674
0.560399025492
0.560999502001
0.561599820432
0.562199980016
0.562800264353
0.563402377521
0.564006599634
0.564612926289
0.565221353084
0.56583187562
0.566444489503
0.567059190337
0.567675973732
0.5682948353
0.568915770655
0.569538775412
0.570163845193
0.570790975618
0.571420162311
0.5720514009
0.572684687014
0.573320016286
0.573957384348
0.57459678684
0.5752382194
0.575881677671
0.576527157297
0.577174653926
0.577824163208
0.578475680795
0.579129202342
0.579784723506
0.580442239949
0.581101747332
0.581763241321
0.582426717584
0.583092171791
0.583759599614
0.58442899673
0.585100358817
0.585773681554
0.586448960625
0.587126191716
0.587805370515
0.588486492713
0.589169554003
0.589854550081
0.590541476646
0.591230329398
0.591921104042
0.592613796283
0.593308401829
0.594004916393
0.594703335689
0.595403655431
0.59610587134
0.596809979137
0.597515974546
0.598223853293
0.598933611108
0.599645243722
0.600358746869
0.601074116287
0.601791347715
0.602510436895
0.60323137957
0.603954171489
0.604678808401
0.605405286057
0.606133600214
0.606863746627
0.607595721057
0.608329519266
0.609065137019
0.609802570084
0.61054181423
0.611282865231
0.612025718861
0.612770370898
0.613516817122
0.614265053316
0.615015075266
0.61576687876
0.616520459587
0.617275813542
0.618032936419
0.618791824017
0.619552472136
0.620314876581
0.621079033156
0.62184493767
0.622612585934
0.623381973761
0.624153096968
0.624925951373
0.625700532797
0.626476837065
0.627254860002
0.628034597437
0.628816045201
0.629599199129
0.630384055057
0.631170608824
0.631958856272
0.632748793244
0.633540415589
0.634333719154
0.635128699792
0.635925353357
0.636723675706
0.637523662698
0.638325310197
0.639128614065
0.639933570172
0.640740174385
0.641548422578
0.642358310625
0.643169834404
0.643982989795
0.64479777268
0.645614178944
0.646432204475
0.647251845164
0.648073096902
0.648895955585
0.649720417112
0.650546477382
0.651374132298
0.652203377767
0.653034209695
0.653866623994
0.654700616577
0.65553618336
0.65637332026
0.657212023199
0.658052288101
0.65889411089
0.659737487496
0.66058241385
0.661428885886
0.662276899539
0.663126450748
0.663977535456
0.664830149604
0.665684289141
0.666539950015
0.667397128177
0.668255819582
0.669116020186
0.669977725948
0.670840932831
0.671705636798
0.672571833817
0.673439519856
0.674308690889
0.675179342888
0.676051471832
0.676925073701
0.677800144475
0.678676680141
0.679554676685
0.680434130097
0.68131503637
0.682197391499
0.683081191481
0.683966432316
0.684853110008
0.68574122056
0.686630759982
0.687521724283
0.688414109477
0.689307911577
0.690203126604
0.691099750577
0.691997779519
0.692897209457
0.693798036417
0.694700256431
0.695603865533
0.696508859758
0.697415235145
0.698322987735
0.69923211357
0.700142608698
0.701054469167
0.701967691029
0.702882270336
0.703798203146
0.704715485517
0.705634113511
0.706554083191
0.707475390625
0.708398031881
0.709322003032
0.71024730015
0.711173919314
0.712101856603
0.713031108097
0.713961669883
0.714893538047
0.715826708677
0.716761177868
0.717696941713
0.718633996309
0.719572337756
0.720511962157
0.721452865617
0.722395044243
0.723338494144
0.724283211435
0.725229192229
0.726176432644
0.727124928801
0.728074676823
0.729025672834
0.729977912964
0.730931393341
0.7318861101
0.732842059375
0.733799237306
0.734757640032
0.735717263697
0.736678104447
0.73764015843
0.738603421797
0.739567890701
0.740533561299
0.741500429749
0.742468492212
0.743437744853
0.744408183836
0.745379805332
0.74635260551
0.747326580547
0.748301726617
0.7492780399
0.750255516577
0.751234152833
0.752213944854
0.75319488883
0.754176980952
0.755160217415
0.756144594416
0.757130108154
0.758116754831
0.759104530652
0.760093431823
0.761083454556
0.762074595062
0.763066849555
0.764060214253
0.765054685377
0.766050259148
0.767046931792
0.768044699536
0.769043558611
0.770043505249
0.771044535685
0.772046646157
0.773049832906
0.774054092175
0.775059420209
0.776065813255
0.777073267566
0.778081779394
0.779091344994
0.780101960625
0.781113622548
0.782126327026
0.783140070325
0.784154848714
0.785170658463
0.786187495847
0.787205357141
0.788224238625
0.789244136579
0.790265047287
0.791286967036
0.792309892115
0.793333818815
0.79435874343
0.795384662257
0.796411571595
0.797439467746
0.798468347014
0.799498205706
0.800529040132
0.801560846602
0.802593621433
0.80362736094
0.804662061444
0.805697719267
0.806734330733
0.80777189217
0.808810399908
0.809849850278
0.810890239617
0.811931564261
0.812973820551
0.814017004829
0.81506111344
0.816106142733
0.817152089057
0.818198948766
0.819246718214
0.82029539376
0.821344971764
0.82239544859
0.823446820602
0.82449908417
0.825552235664
0.826606271457
0.827661187925
0.828716981447
0.829773648403
0.830831185177
0.831889588156
0.832948853727
0.834008978282
0.835069958215
0.836131789923
0.837194469803
0.838257994257
0.83932235969
0.840387562508
0.84145359912
0.842520465937
0.843588159374
0.844656675848
0.845726011778
0.846796163586
0.847867127696
0.848938900535
0.850011478533
0.851084858122
0.852159035737
0.853234007815
0.854309770795
0.855386321119
0.856463655234
0.857541769586
0.858620660625
0.859700324804
0.860780758578
0.861861958404
0.862943920743
0.864026642057
0.865110118813
0.866194347477
0.867279324521
0.868365046416
0.86945150964
0.870538710669
0.871626645985
0.872715312071
0.873804705412
0.874894822497
0.875985659817
0.877077213865
0.878169481138
0.879262458133
0.880356141352
0.881450527299
0.88254561248
0.883641393403
0.884737866581
0.885835028526
0.886932875756
0.888031404789
0.889130612147
0.890230494354
0.891331047937
0.892432269425
0.893534155349
0.894636702245
0.895739906649
0.8968437651
0.897948274141
0.899053430316
0.900159230173
0.90126567026
0.90237274713
0.903480457338
0.904588797442
0.905697764001
0.906807353578
0.907917562737
0.909028388047
0.910139826077
0.9112518734
0.912364526592
0.91347778223
0.914591636894
0.915706087169
0.916821129638
0.91793676089
0.919052977515
0.920169776108
0.921287153262
0.922405105578
0.923523629655
0.924642722097
0.92576237951
0.926882598502
0.928003375684
0.92912470767
0.930246591077
0.931369022522
0.932491998627
0.933615516016
0.934739571315
0.935864161154
0.936989282163
0.938114930977
0.939241104232
0.940367798567
0.941495010625
0.942622737049
0.943750974487
0.944879719587
0.946008969001
0.947139718885
0.948273802072
0.949411250047
0.950552054294
0.951696206304
0.952843697576
0.95399451961
0.955148663915
0.956306122005
0.957466885399
0.958630945622
0.959798294205
0.960968922685
0.962142822603
0.963319985507
0.964500402951
0.965684066494
0.966870967701
0.968061098141
0.969254449391
0.970451013033
0.971650780654
0.972853743847
0.974059894212
0.975269223352
0.976481722877
0.977697384404
0.978916199553
0.980138159952
0.981363257234
0.982591483036
0.983822829004
0.985057286786
0.986294848039
0.987535504423
0.988779247604
0.990026069257
0.991275961058
0.992528914691
0.993784921845
0.995043974217
0.996306063506
0.997571181419
0.998839319668
1.00011046997
1.00138462405
1.00266177364
1.00394191047
1.00522502627
1.00651111281
1.00780016183
1.00909216508
1.01038711433
1.01168500135
1.01298581792
1.0142895558
1.0155962068
1.01690576269
1.01821821529
1.01953355638
1.02085177778
1.0221728713
1.02349682877
1.02482364201
1.02615330284
1.02748580311
1.02882113465
1.03015928933
1.03150025898
1.03284403547
1.03419061066
1.03553997643
1.03689212466
1.03824704721
1.03960473599
1.04096518288
1.04232837979
1.04369431861
1.04506299126
1.04643438966
1.04780850572
1.04918533138
1.05056485857
1.05194707922
1.05333198528
1.05471956871
1.05610982145
1.05750273546
1.05889830272
1.0602965152
1.06169736488
1.06310084373
1.06450694376
1.06591565695
1.0673269753
1.06874089083
1.07015739555
1.07157648147
1.07299814061
1.07442236501
1.07584914671
1.07727847773
1.07871035014
1.08014475597
1.0815816873
1.08302113618
1.08446309467
1.08590755487
1.08735450884
1.08880394867
1.09025586646
1.0917102543
1.09316710429
1.09462640855
1.09608815918
1.09755234831
1.09901896807
1.10048801058
1.10195946798
1.10343333242
1.10490959604
1.106388251
1.10786928946
1.10935270358
1.11083848553
1.11232662749
1.11381712165
1.11530996018
1.11680513529
1.11830263918
1.11980246404
1.1213046021
1.12280904556
1.12431578664
1.12582481759
1.12733613062
1.12884971799
1.13036557192
1.13188368468
1.13340404852
1.1349266557
1.13645149849
1.13797856916
1.13950786
1.14103936328
1.14257307129
1.14410897633
1.14564707071
1.14718734673
1.1487297967
1.15027441293
1.15182118777
1.15337011353
1.15492118255
1.15647438717
1.15802971973
1.1595871726
1.16114673813
1.16270840867
1.16427217661
1.16583803432
1.16740597417
1.16897598856
1.17054806987
1.1721222105
1.17369840286
1.17527663936
1.17685691241
1.17843921443
1.18002353785
1.18160987509
1.1831982186
1.18478856083
1.18638089421
1.1879752112
1.18957150426
1.19116976586
1.19276998848
1.19437216458
1.19597628665
1.19758234717
1.19919033865
1.20080025358
1.20241208447
1.20402582383
1.20564146417
1.20725899802
1.2088784179
1.21049971635
1.21212288592
1.21374791913
1.21537480855
1.21700354673
1.21863412624
1.22026653963
1.22190077949
1.22353683839
1.22517470892
1.22681438367
1.22845585523
1.23009911621
1.23174415922
1.23339097685
1.23503956175
1.23668990652
1.23834200381
1.23999584624
1.24165142645
1.2433087371
1.24496777084
1.24662852032
1.24829097822
1.24995513719
1.25162098991
1.25328852907
1.25495774736
1.25662863745
1.25830119207
1.25997540389
1.26165126565
1.26332877004
1.26500790979
1.26668867764
1.2683710663
1.27005506852
1.27174067705
1.27342788462
1.275116684
1.27680706794
1.27849902922
1.2801925606
1.28188765486
1.28358430478
1.28528250316
1.28698224278
1.28868351645
1.29038631698
1.29209063716
1.29379646983
1.2955038078
1.29721264391
1.29892297098
1.30063478186
1.30234806939
1.30406282642
1.30577904581
1.30749672042
1.30921584313
1.31093640679
1.3126584043
1.31438182854
1.3161066724
1.31783292877
1.31956059056
1.32128965068
1.32302010203
1.32475193754
1.32648515013
1.32821973274
1.32995567829
1.33169297974
1.33343163002
1.33517162209
1.33691294892
1.33865560346
1.34039957868
1.34214486756
1.34389146308
1.34563935823
1.34738854601