/*--------------------------------*- C++ -*----------------------------------*\
| =========                 |                                                 |
| \\      /  F ield         | OpenFOAM: The Open Source CFD Toolbox           |
|  \\    /   O peration     | Version:  dev                                   |
|   \\  /    A nd           | Web:      www.OpenFOAM.org                      |
|    \\/     M anipulation  |                                                 |
\*---------------------------------------------------------------------------*/
FoamFile
{
    version     2.0;
    format      ascii;
    class       volScalarField;
    location    "0";
    object      moment.2.populationBalance;
}
// * * * * * * * * * * * * * * * * * * * * * * * * * * * * * * * * * * * * * //

dimensions      [0 -1 0 0 0 0 0];

internalField   nonuniform List<scalar> 
5000
(
6.398720064e-11
5.7565445184e-10
1.5984004e-09
3.13161113664e-09
5.17467299904e-09
7.72697257024e-09
1.0787896679e-08
1.43568324e-08
1.84331670534e-08
2.30162882054e-08
2.81055836678e-08
3.37004414982e-08
3.980025e-08
4.64043977222e-08
5.35122734598e-08
6.11232662534e-08
6.92367653894e-08
7.78521604e-08
8.6968841063e-08
9.65861974022e-08
1.06703619687e-07
1.17320498433e-07
1.284362244e-07
1.40050188596e-07
1.52161782273e-07
1.64770396929e-07
1.77875424308e-07
1.914762564e-07
2.05572285441e-07
2.20162903911e-07
2.35247504538e-07
2.50825480295e-07
2.668962244e-07
2.83459130317e-07
3.00513591757e-07
3.18059002676e-07
3.36094757274e-07
3.5462025e-07
3.73634875546e-07
3.93138028852e-07
4.13129105101e-07
4.33607499725e-07
4.545726084e-07
4.76023827047e-07
4.97960551834e-07
5.20382179175e-07
5.43288105729e-07
5.666777284e-07
5.9055044434e-07
6.14905650945e-07
6.39742745857e-07
6.65061126964e-07
6.908601924e-07
7.17139340545e-07
7.43897970023e-07
7.71135479706e-07
7.98851268711e-07
8.270447364e-07
8.55715282381e-07
8.84862306509e-07
9.14485208884e-07
9.4458338985e-07
9.7515625e-07
1.00620319017e-06
1.03772361144e-06
1.06971691515e-06
1.10218250286e-06
1.1351197764e-06
1.16852813783e-06
1.20240698947e-06
1.23675573386e-06
1.27157377382e-06
1.3068605124e-06
1.34261535288e-06
1.37883769882e-06
1.41552695398e-06
1.45268252242e-06
1.4903038084e-06
1.52839021645e-06
1.56694115134e-06
1.60595601807e-06
1.64543422193e-06
1.6853751684e-06
1.72577826325e-06
1.76664291246e-06
1.80796852229e-06
1.84975449923e-06
1.89200025e-06
1.93470518159e-06
1.97786870124e-06
2.0214902164e-06
2.0655691348e-06
2.1101048644e-06
2.15509681342e-06
2.2005443903e-06
2.24644700375e-06
2.29280406272e-06
2.3396149764e-06
2.38687915423e-06
2.43459600589e-06
2.48276494131e-06
2.53138537068e-06
2.5804567044e-06
2.62997835315e-06
2.67994972785e-06
2.73037023964e-06
2.78123929994e-06
2.8325563204e-06
2.88432071291e-06
2.93653188961e-06
2.9891892629e-06
3.0422922454e-06
3.09584025e-06
3.14983268982e-06
3.20426897823e-06
3.25914852885e-06
3.31447075553e-06
3.3702350724e-06
3.4264408938e-06
3.48308763433e-06
3.54017470884e-06
3.59770153242e-06
3.6556675204e-06
3.71407208837e-06
3.77291465216e-06
3.83219462784e-06
3.89191143173e-06
3.9520644804e-06
4.01265319066e-06
4.07367697956e-06
4.13513526441e-06
4.19702746276e-06
4.2593529924e-06
4.32211127137e-06
4.38530171797e-06
4.44892375071e-06
4.51297678838e-06
4.57746025e-06
4.64237355484e-06
4.70771612242e-06
4.77348737249e-06
4.83968672507e-06
4.9063136004e-06
4.97336741898e-06
5.04084760156e-06
5.10875356913e-06
5.17708474291e-06
5.2458405444e-06
5.31502039532e-06
5.38462371763e-06
5.45464993357e-06
5.52509846559e-06
5.5959687364e-06
5.66726016896e-06
5.73897218647e-06
5.81110421238e-06
5.88365567038e-06
5.9566259844e-06
6.03001457864e-06
6.10382087752e-06
6.17804430572e-06
6.25268428815e-06
6.32774025e-06
6.40321161667e-06
6.47909781381e-06
6.55539826734e-06
6.63211240341e-06
6.7092396484e-06
6.78677942897e-06
6.86473117199e-06
6.94309430462e-06
7.02186825421e-06
7.1010524484e-06
7.18064631506e-06
7.2606492823e-06
7.3410607785e-06
7.42188023224e-06
7.5031070724e-06
7.58474072806e-06
7.66678062858e-06
7.74922620355e-06
7.83207688279e-06
7.9153320964e-06
7.9989912747e-06
8.08305384827e-06
8.16751924792e-06
8.25238690473e-06
8.33765625e-06
8.42332671529e-06
8.5093977324e-06
8.59586873339e-06
8.68273915054e-06
8.7700084164e-06
8.85767596375e-06
8.94574122563e-06
9.0342036353e-06
9.1230626263e-06
9.2123176324e-06
9.3019680876e-06
9.39201342618e-06
9.48245308262e-06
9.5732864917e-06
9.6645130884e-06
9.75613230797e-06
9.8481435859e-06
9.94054635791e-06
1.003334006e-05
1.01265241284e-05
1.02200979996e-05
1.03140611102e-05
1.04084128973e-05
1.05031527981e-05
1.059828025e-05
1.06937946907e-05
1.07896955582e-05
1.08859822906e-05
1.09826543265e-05
1.10797111044e-05
1.11771520633e-05
1.12749766425e-05
1.13731842812e-05
1.14717744192e-05
1.15707464964e-05
1.16700999529e-05
1.17698342292e-05
1.1869948766e-05
1.1970443004e-05
1.20713163844e-05
1.21725683487e-05
1.22741983384e-05
1.23762057955e-05
1.2478590162e-05
1.25813508804e-05
1.26844873932e-05
1.27879991434e-05
1.28918855739e-05
1.29961461283e-05
1.310078025e-05
1.32057873829e-05
1.33111669712e-05
1.34169184591e-05
1.35230412912e-05
1.36295349124e-05
1.37363987677e-05
1.38436323025e-05
1.39512349623e-05
1.40592061929e-05
1.41675454404e-05
1.42762521511e-05
1.43853257715e-05
1.44947657485e-05
1.4604571529e-05
1.47147425604e-05
1.48252782902e-05
1.49361781661e-05
1.50474416363e-05
1.51590681488e-05
1.52710571524e-05
1.53834080957e-05
1.54961204277e-05
1.56091935977e-05
1.57226270553e-05
1.583642025e-05
1.5950572632e-05
1.60650836514e-05
1.61799527587e-05
1.62951794047e-05
1.64107630404e-05
1.65267031169e-05
1.66429990857e-05
1.67596503986e-05
1.68766565074e-05
1.69940168644e-05
1.7111730922e-05
1.7229798133e-05
1.73482179502e-05
1.74669898269e-05
1.75861132164e-05
1.77055875725e-05
1.7825412349e-05
1.79455870002e-05
1.80661109805e-05
1.81869837444e-05
1.8308204747e-05
1.84297734433e-05
1.85516892888e-05
1.8673951739e-05
1.879656025e-05
1.89195142778e-05
1.90428132788e-05
1.91664567096e-05
1.92904440271e-05
1.94147746884e-05
1.95394481509e-05
1.96644638722e-05
1.97898213101e-05
1.99155199227e-05
2.00415591684e-05
2.01679385058e-05
2.02946573937e-05
2.04217152911e-05
2.05491116575e-05
2.06768459524e-05
2.08049176356e-05
2.09333261671e-05
2.10620710074e-05
2.11911516169e-05
2.13205674564e-05
2.1450317987e-05
2.158040267e-05
2.1710820967e-05
2.18415723396e-05
2.197265625e-05
2.21040721604e-05
2.22358195334e-05
2.23678978316e-05
2.25003065182e-05
2.26330450564e-05
2.27661129097e-05
2.28995095418e-05
2.30332344167e-05
2.31672869988e-05
2.33016667524e-05
2.34363731423e-05
2.35714056335e-05
2.37067636913e-05
2.3842446781e-05
2.39784543684e-05
2.41147859195e-05
2.42514409005e-05
2.43884187778e-05
2.45257190181e-05
2.46633410884e-05
2.48012844559e-05
2.4939548588e-05
2.50781329524e-05
2.5217037017e-05
2.535626025e-05
2.54958021198e-05
2.56356620952e-05
2.57758396449e-05
2.59163342382e-05
2.60571453444e-05
2.61982724333e-05
2.63397149746e-05
2.64814724386e-05
2.66235442957e-05
2.67659300164e-05
2.69086290717e-05
2.70516409326e-05
2.71949650706e-05
2.73386009572e-05
2.74825480644e-05
2.76268058642e-05
2.7771373829e-05
2.79162514313e-05
2.80614381441e-05
2.82069334404e-05
2.83527367935e-05
2.84988476771e-05
2.8645265565e-05
2.87919899312e-05
2.893902025e-05
2.90863559961e-05
2.92339966441e-05
2.93819416693e-05
2.95301905469e-05
2.96787427524e-05
2.98275977616e-05
2.99767550507e-05
3.01262140957e-05
3.02759743734e-05
3.04260353604e-05
3.05763965338e-05
3.07270573709e-05
3.08780173491e-05
3.10292759463e-05
3.11808326404e-05
3.13326869097e-05
3.14848382327e-05
3.16372860881e-05
3.17900299549e-05
3.19430693124e-05
3.209640364e-05
3.22500324175e-05
3.24039551248e-05
3.25581712421e-05
3.271268025e-05
3.28674816291e-05
3.30225748603e-05
3.3177959425e-05
3.33336348044e-05
3.34896004804e-05
3.36458559348e-05
3.38024006499e-05
3.3959234108e-05
3.41163557919e-05
3.42737651844e-05
3.44314617688e-05
3.45894450284e-05
3.47477144468e-05
3.49062695081e-05
3.50651096964e-05
3.5224234496e-05
3.53836433916e-05
3.55433358681e-05
3.57033114105e-05
3.58635695044e-05
3.60241096353e-05
3.6184931289e-05
3.63460339518e-05
3.65074171099e-05
3.666908025e-05
3.68310228589e-05
3.69932444237e-05
3.71557444318e-05
3.73185223708e-05
3.74815777284e-05
3.76449099928e-05
3.78085186523e-05
3.79724031955e-05
3.81365631112e-05
3.83009978884e-05
3.84657070165e-05
3.8630689985e-05
3.87959462838e-05
3.89614754028e-05
3.91272768324e-05
3.92933500631e-05
3.94596945857e-05
3.96263098912e-05
3.9793195471e-05
3.99603508164e-05
4.01277754193e-05
4.02954687718e-05
4.0463430366e-05
4.06316596945e-05
4.080015625e-05
4.09689195255e-05
4.11379490143e-05
4.13072442099e-05
4.14768046059e-05
4.16466296964e-05
4.18167189756e-05
4.19870719379e-05
4.21576880782e-05
4.23285668913e-05
4.24997078724e-05
4.2671110517e-05
4.28427743209e-05
4.30146987799e-05
4.31868833903e-05
4.33593276484e-05
4.3532031051e-05
4.3704993095e-05
4.38782132776e-05
4.40516910962e-05
4.42254260484e-05
4.43994176322e-05
4.45736653457e-05
4.47481686874e-05
4.49229271559e-05
4.509794025e-05
4.5273207469e-05
4.54487283121e-05
4.56245022791e-05
4.58005288698e-05
4.59768075844e-05
4.61533379232e-05
4.63301193868e-05
4.65071514761e-05
4.66844336922e-05
4.68619655364e-05
4.70397465104e-05
4.7217776116e-05
4.73960538552e-05
4.75745792305e-05
4.77533517444e-05
4.79323708997e-05
4.81116361995e-05
4.82911471472e-05
4.84709032462e-05
4.86509040004e-05
4.88311489139e-05
4.90116374909e-05
4.9192369236e-05
4.9373343654e-05
4.955456025e-05
4.97360185292e-05
4.99177179971e-05
5.00996581596e-05
5.02818385226e-05
5.04642585924e-05
5.06469178756e-05
5.08298158788e-05
5.10129521092e-05
5.11963260739e-05
5.13799372804e-05
5.15637852365e-05
5.17478694502e-05
5.19321894298e-05
5.21167446836e-05
5.23015347204e-05
5.24865590492e-05
5.26718171792e-05
5.28573086199e-05
5.3043032881e-05
5.32289894724e-05
5.34151779043e-05
5.36015976872e-05
5.37882483318e-05
5.3975129349e-05
5.416224025e-05
5.43495805462e-05
5.45371497493e-05
5.47249473712e-05
5.49129729241e-05
5.51012259204e-05
5.52897058727e-05
5.5478412294e-05
5.56673446974e-05
5.58565025964e-05
5.60458855044e-05
5.62354929355e-05
5.64253244037e-05
5.66153794235e-05
5.68056575094e-05
5.69961581764e-05
5.71868809395e-05
5.73778253142e-05
5.75689908159e-05
5.77603769606e-05
5.79519832644e-05
5.81438092436e-05
5.83358544148e-05
5.85281182948e-05
5.87206004008e-05
5.891330025e-05
5.910621736e-05
5.92993512487e-05
5.94927014341e-05
5.96862674344e-05
5.98800487684e-05
6.00740449547e-05
6.02682555125e-05
6.04626799609e-05
6.06573178196e-05
6.08521686084e-05
6.10472318472e-05
6.12425070564e-05
6.14379937564e-05
6.16336914681e-05
6.18295997124e-05
6.20257180106e-05
6.22220458843e-05
6.24185828551e-05
6.2615328445e-05
6.28122821764e-05
6.30094435717e-05
6.32068121535e-05
6.3404387445e-05
6.36021689694e-05
6.380015625e-05
6.39983488107e-05
6.41967461753e-05
6.43953478681e-05
6.45941534136e-05
6.47931623364e-05
6.49923741615e-05
6.51917884141e-05
6.53914046196e-05
6.55912223037e-05
6.57912409924e-05
6.59914602118e-05
6.61918794883e-05
6.63924983485e-05
6.65933163195e-05
6.67943329284e-05
6.69955477025e-05
6.71969601696e-05
6.73985698574e-05
6.76003762942e-05
6.78023790084e-05
6.80045775285e-05
6.82069713835e-05
6.84095601025e-05
6.86123432147e-05
6.881532025e-05
6.90184907381e-05
6.92218542091e-05
6.94254101934e-05
6.96291582215e-05
6.98330978244e-05
7.00372285331e-05
7.02415498789e-05
7.04460613935e-05
7.06507626086e-05
7.08556530564e-05
7.10607322691e-05
7.12659997793e-05
7.14714551199e-05
7.16770978238e-05
7.18829274244e-05
7.20889434552e-05
7.22951454501e-05
7.2501532943e-05
7.27081054683e-05
7.29148625604e-05
7.31218037542e-05
7.33289285847e-05
7.35362365871e-05
7.37437272969e-05
7.395140025e-05
7.41592549823e-05
7.43672910301e-05
7.45755079298e-05
7.47839052183e-05
7.49924824324e-05
7.52012391095e-05
7.5410174787e-05
7.56192890026e-05
7.58285812943e-05
7.60380512004e-05
7.62476982593e-05
7.64575220096e-05
7.66675219904e-05
7.68776977409e-05
7.70880488004e-05
7.72985747087e-05
7.75092750058e-05
7.77201492318e-05
7.79311969271e-05
7.81424176324e-05
7.83538108887e-05
7.8565376237e-05
7.87771132189e-05
7.89890213759e-05
7.920110025e-05
7.94133493833e-05
7.96257683183e-05
7.98383565975e-05
8.00511137638e-05
8.02640393604e-05
8.04771329307e-05
8.06903940182e-05
8.09038221669e-05
8.11174169208e-05
8.13311778244e-05
8.15451044222e-05
8.17591962591e-05
8.19734528801e-05
8.21878738307e-05
8.24024586564e-05
8.2617206903e-05
8.28321181167e-05
8.30471918437e-05
8.32624276307e-05
8.34778250244e-05
8.36933835719e-05
8.39091028206e-05
8.41249823179e-05
8.43410216117e-05
8.455722025e-05
8.47735777811e-05
8.49900937537e-05
8.52067677163e-05
8.54235992181e-05
8.56405878084e-05
8.58577330366e-05
8.60750344526e-05
8.62924916064e-05
8.65101040481e-05
8.67278713284e-05
8.69457929979e-05
8.71638686077e-05
8.73820977091e-05
8.76004798534e-05
8.78190145924e-05
8.80377014781e-05
8.82565400628e-05
8.84755298989e-05
8.86946705391e-05
8.89139615364e-05
8.9133402444e-05
8.93529928153e-05
8.95727322041e-05
8.97926201643e-05
9.001265625e-05
9.02328400158e-05
9.04531710162e-05
9.06736488063e-05
9.08942729413e-05
9.11150429764e-05
9.13359584674e-05
9.15570189703e-05
9.17782240411e-05
9.19995732362e-05
9.22210661124e-05
9.24427022265e-05
9.26644811356e-05
9.28864023972e-05
9.31084655688e-05
9.33306702084e-05
9.3553015874e-05
9.37755021241e-05
9.39981285173e-05
9.42208946123e-05
9.44437999684e-05
9.46668441448e-05
9.48900267013e-05
9.51133471975e-05
9.53368051936e-05
9.556040025e-05
9.57841319272e-05
9.6007999786e-05
9.62320033876e-05
9.64561422932e-05
9.66804160644e-05
9.6904824263e-05
9.71293664511e-05
9.7354042191e-05
9.75788510451e-05
9.78037925764e-05
9.80288663478e-05
9.82540719227e-05
9.84794088645e-05
9.87048767371e-05
9.89304751044e-05
9.91562035308e-05
9.93820615806e-05
9.96080488188e-05
9.98341648103e-05
0.00010006040912
0.000100286781315
0.000100513280958
0.000100739907618
0.00010096666086
0.00010119354025
0.000101420545355
0.000101647675743
0.00010187493098
0.000102102310634
0.000102329814272
0.000102557441463
0.000102785191775
0.000103013064776
0.000103241060035
0.00010346917712
0.000103697415602
0.000103925775049
0.000104154255031
0.000104382855118
0.00010461157488
0.000104840413888
0.000105069371712
0.000105298447924
0.000105527642093
0.000105756953792
0.000105986382593
0.000106215928067
0.000106445589786
0.000106675367323
0.00010690526025
0.00010713526814
0.000107365390567
0.000107595627104
0.000107825977323
0.0001080564408
0.000108287017109
0.000108517705822
0.000108748506516
0.000108979418765
0.000109210442144
0.000109441576229
0.000109672820594
0.000109904174817
0.000110135638472
0.000110367211136
0.000110598892387
0.000110830681799
0.000111062578952
0.000111294583421
0.000111526694784
0.00011175891262
0.000111991236506
0.000112223666021
0.000112456200743
0.00011268884025
0.000112921584122
0.000113154431939
0.000113387383279
0.000113620437722
0.000113853594848
0.000114086854239
0.000114320215473
0.000114553678132
0.000114787241797
0.000115020906048
0.000115254670469
0.000115488534639
0.000115722498142
0.000115956560559
0.000116190721472
0.000116424980466
0.000116659337121
0.000116893791023
0.000117128341753
0.000117362988896
0.000117597732036
0.000117832570757
0.000118067504643
0.000118302533279
0.00011853765625
0.000118772873141
0.000119008183537
0.000119243587025
0.000119479083189
0.000119714671616
0.000119950351893
0.000120186123606
0.000120421986343
0.000120657939689
0.000120893983232
0.000121130116561
0.000121366339263
0.000121602650926
0.000121839051138
0.000122075539488
0.000122312115566
0.000122548778959
0.000122785529257
0.00012302236605
0.000123259288928
0.000123496297481
0.000123733391299
0.000123970569973
0.000124207833093
0.00012444518025
0.000124682611036
0.000124920125043
0.000125157721862
0.000125395401085
0.000125633162304
0.000125871005113
0.000126108929103
0.000126346933868
0.000126585019002
0.000126823184096
0.000127061428747
0.000127299752546
0.000127538155089
0.00012777663597
0.000128015194784
0.000128253831126
0.000128492544591
0.000128731334775
0.000128970201272
0.00012920914368
0.000129448161595
0.000129687254612
0.000129926422329
0.000130165664343
0.00013040498025
0.000130644369649
0.000130883832136
0.00013112336731
0.00013136297477
0.000131602654112
0.000131842404937
0.000132082226843
0.000132322119429
0.000132562082295
0.00013280211504
0.000133042217265
0.000133282388568
0.000133522628552
0.000133762936815
0.00013400331296
0.000134243756588
0.000134484267299
0.000134724844695
0.000134965488379
0.000135206197952
0.000135446973017
0.000135687813177
0.000135928718033
0.00013616968719
0.00013641072025
0.000136651816818
0.000136892976496
0.00013713419889
0.000137375483603
0.00013761683024
0.000137858238407
0.000138099707707
0.000138341237746
0.00013858282813
0.000138824478464
0.000139066188356
0.00013930795741
0.000139549785233
0.000139791671433
0.000140033615616
0.00014027561739
0.000140517676362
0.000140759792139
0.000141001964331
0.000141244192544
0.000141486476389
0.000141728815472
0.000141971209404
0.000142213657793
0.00014245616025
0.000142698716383
0.000142941325804
0.000143183988121
0.000143426702945
0.000143669469888
0.00014391228856
0.000144155158573
0.000144398079537
0.000144641051065
0.000144884072768
0.000145127144259
0.00014537026515
0.000145613435054
0.000145856653584
0.000146099920352
0.000146343234973
0.00014658659706
0.000146830006227
0.000147073462087
0.000147316964256
0.000147560512349
0.000147804105979
0.000148047744762
0.000148291428314
0.00014853515625
0.000148778928186
0.000149022743738
0.000149266602523
0.000149510504157
0.000149754448256
0.000149998434439
0.000150242462323
0.000150486531524
0.000150730641661
0.000150974792352
0.000151218983216
0.00015146321387
0.000151707483934
0.000151951793027
0.000152196140768
0.000152440526777
0.000152684950673
0.000152929412077
0.000153173910608
0.000153418445888
0.000153663017537
0.000153907625177
0.000154152268428
0.000154396946911
0.00015464166025
0.000154886408065
0.00015513118998
0.000155376005616
0.000155620854597
0.000155865736544
0.000156110651083
0.000156355597835
0.000156600576426
0.000156845586478
0.000157090627616
0.000157335699465
0.000157580801649
0.000157825933794
0.000158071095524
0.000158316286464
0.000158561506242
0.000158806754482
0.000159052030811
0.000159297334855
0.00015954266624
0.000159788024595
0.000160033409546
0.00016027882072
0.000160524257746
0.00016076972025
0.000161015207862
0.000161260720209
0.000161506256921
0.000161751817625
0.000161997401952
0.000162243009531
0.000162488639991
0.000162734292963
0.000162979968076
0.00016322566496
0.000163471383247
0.000163717122568
0.000163962882552
0.000164208662833
0.00016445446304
0.000164700282807
0.000164946121765
0.000165191979547
0.000165437855785
0.000165683750112
0.000165929662162
0.000166175591566
0.00016642153796
0.000166667500977
0.00016691348025
0.000167159475415
0.000167405486105
0.000167651511956
0.000167897552603
0.00016814360768
0.000168389676824
0.000168635759671
0.000168881855855
0.000169127965014
0.000169374086784
0.000169620220802
0.000169866366705
0.00017011252413
0.000170358692715
0.000170604872096
0.000170851061914
0.000171097261804
0.000171343471407
0.000171589690361
0.000171835918304
0.000172082154877
0.000172328399718
0.000172574652467
0.000172820912764
0.00017306718025
0.000173313454565
0.000173559735349
0.000173806022243
0.000174052314889
0.000174298612928
0.000174544916002
0.000174791223753
0.000175037535823
0.000175283851854
0.000175530171488
0.00017577649437
0.000176022820142
0.000176269148447
0.000176515478929
0.000176761811232
0.000177008145001
0.000177254479879
0.00017750081551
0.000177747151541
0.000177993487616
0.000178239823381
0.000178486158481
0.000178732492561
0.000178978825269
0.00017922515625
0.000179471485151
0.000179717811619
0.000179964135301
0.000180210455844
0.000180456772896
0.000180703086105
0.000180949395119
0.000181195699585
0.000181441999154
0.000181688293472
0.000181934582191
0.000182180864958
0.000182427141423
0.000182673411237
0.000182919674048
0.000183165929509
0.000183412177268
0.000183658416977
0.000183904648287
0.000184150870848
0.000184397084314
0.000184643288335
0.000184889482563
0.00018513566665
0.00018538184025
0.000185628003015
0.000185874154597
0.00018612029465
0.000186366422828
0.000186612538784
0.000186858642173
0.000187104732648
0.000187350809863
0.000187596873475
0.000187842923136
0.000188088958504
0.000188334979233
0.000188580984978
0.000188826975397
0.000189072950144
0.000189318908877
0.000189564851252
0.000189810776926
0.000190056685557
0.0001903025768
0.000190548450315
0.00019079430576
0.000191040142791
0.000191285961068
0.00019153176025
0.000191777539995
0.000192023299962
0.000192269039811
0.000192514759201
0.000192760457792
0.000193006135245
0.00019325179122
0.000193497425376
0.000193743037376
0.00019398862688
0.00019423419355
0.000194479737047
0.000194725257033
0.00019497075317
0.00019521622512
0.000195461672547
0.000195707095112
0.000195952492479
0.000196197864311
0.000196443210272
0.000196688530026
0.000196933823236
0.000197179089567
0.000197424328683
0.00019766954025
0.000197914723932
0.000198159879394
0.000198405006302
0.000198650104323
0.00019889517312
0.000199140212362
0.000199385221715
0.000199630200845
0.000199875149419
0.000200120067104
0.000200364953569
0.000200609808481
0.000200854631507
0.000201099422316
0.000201344180576
0.000201588905957
0.000201833598127
0.000202078256755
0.000202322881511
0.000202567472064
0.000202812028085
0.000203056549244
0.00020330103521
0.000203545485655
0.00020378990025
0.000204034278666
0.000204278620573
0.000204522925645
0.000204767193553
0.000205011423968
0.000205255616564
0.000205499771013
0.000205743886988
0.000205987964162
0.000206232002208
0.000206476000801
0.000206719959613
0.00020696387832
0.000207207756594
0.000207451594112
0.000207695390548
0.000207939145577
0.000208182858874
0.000208426530115
0.000208670158976
0.000208913745133
0.000209157288262
0.00020940078804
0.000209644244144
0.00020988765625
0.000210131024036
0.00021037434718
0.000210617625359
0.000210860858252
0.000211104045536
0.000211347186891
0.000211590281995
0.000211833330527
0.000212076332166
0.000212319286592
0.000212562193485
0.000212805052525
0.000213047863392
0.000213290625766
0.000213533339328
0.00021377600376
0.000214018618742
0.000214261183957
0.000214503699085
0.000214746163808
0.00021498857781
0.000215230940772
0.000215473252378
0.000215715512309
0.00021595772025
0.000216199875884
0.000216441978894
0.000216684028965
0.00021692602578
0.000217167969024
0.000217409858383
0.00021765169354
0.000217893474181
0.000218135199991
0.000218376870656
0.000218618485863
0.000218860045296
0.000219101548643
0.00021934299559
0.000219584385824
0.000219825719033
0.000220066994903
0.000220308213122
0.000220549373379
0.00022079047536
0.000221031518756
0.000221272503253
0.000221513428542
0.000221754294311
0.00022199510025
0.000222235846048
0.000222476531395
0.000222717155981
0.000222957719497
0.000223198221632
0.000223438662079
0.000223679040528
0.00022391935667
0.000224159610197
0.0002243998008
0.000224639928173
0.000224879992006
0.000225120446983
0.000225364020551
0.000225611161813
0.000225861864643
0.000226116122918
0.00022637393052
0.000226635281332
0.000226900169242
0.000227168588141
0.000227440531923
0.000227715994485
0.000227994969729
0.000228277451559
0.000228563433882
0.000228852910609
0.000229145875654
0.000229442322937
0.000229742246376
0.000230045639897
0.000230352497427
0.000230662812898
0.000230976580244
0.000231293793402
0.000231614446314
0.000231938532925
0.000232266047181
0.000232596983035
0.000232931334441
0.000233269095357
0.000233610259743
0.000233954821566
0.000234302774791
0.000234654113392
0.000235008831342
0.00023536692262
0.000235728381207
0.000236093201088
0.00023646137625
0.000236832900685
0.000237207768389
0.000237585973358
0.000237967509595
0.000238352371105
0.000238740551895
0.000239132045977
0.000239526847366
0.00023992495008
0.000240326348142
0.000240731035575
0.000241139006408
0.000241550254673
0.000241964774405
0.000242382559642
0.000242803604426
0.000243227902802
0.000243655448818
0.000244086236526
0.000244520259982
0.000244957513243
0.000245397990372
0.000245841685434
0.000246288592497
0.000246738705633
0.000247192018917
0.000247648526429
0.000248108222249
0.000248571100464
0.000249037155162
0.000249506380435
0.000249978770378
0.00025045431909
0.000250933020673
0.000251414869232
0.000251899858877
0.000252387983719
0.000252879237874
0.000253373615461
0.000253871110601
0.000254371717421
0.000254875430049
0.000255382242618
0.000255892149262
0.000256405144122
0.000256921221339
0.000257440375059
0.000257962599431
0.000258487888607
0.000259016236744
0.000259547637999
0.000260082086536
0.000260619576521
0.000261160102121
0.000261703657511
0.000262250236865
0.000262799834363
0.000263352444187
0.000263908060524
0.000264466677562
0.000265028289494
0.000265592890516
0.000266160474828
0.000266731036631
0.000267304570133
0.000267881069542
0.00026846052907
0.000269042942935
0.000269628305355
0.000270216610554
0.000270807852756
0.000271402026193
0.000271999125096
0.000272599143702
0.00027320207625
0.000273807916983
0.000274416660148
0.000275028299994
0.000275642830773
0.000276260246743
0.000276880542163
0.000277503711295
0.000278129748407
0.000278758647767
0.00027939040365
0.000280025010331
0.000280662462089
0.000281302753209
0.000281945877977
0.000282591830682
0.000283240605618
0.00028389219708
0.00028454659937
0.00028520380679
0.000285863813647
0.00028652661425
0.000287192202914
0.000287860573954
0.000288531721691
0.000289205640448
0.000289882324551
0.000290561768331
0.000291243966121
0.000291928912258
0.000292616601082
0.000293307026936
0.000294000184168
0.000294696067127
0.000295394670166
0.000296095987644
0.000296800013919
0.000297506743356
0.000298216170322
0.000298928289186
0.000299643094322
0.000300360580108
0.000301080740924
0.000301803571153
0.000302529065182
0.000303257217402
0.000303988022207
0.000304721473993
0.000305457567161
0.000306196296115
0.000306937655262
0.000307681639013
0.000308428241781
0.000309177457984
0.000309929282042
0.000310683708379
0.000311440731422
0.000312200345602
0.000312962545354
0.000313727325113
0.000314494679322
0.000315264602424
0.000316037088866
0.000316812133099
0.000317589729577
0.000318369872758
0.000319152557103
0.000319937777075
0.000320725527142
0.000321515801775
0.000322308595448
0.00032310390264
0.000323901717829
0.000324702035502
0.000325504850145
0.00032631015625
0.000327117948311
0.000327928220825
0.000328740968293
0.000329556185221
0.000330373866115
0.000331194005487
0.000332016597851
0.000332841637725
0.000333669119631
0.000334499038091
0.000335331387636
0.000336166162795
0.000337003358103
0.000337842968098
0.000338684987322
0.000339529410319
0.000340376231636
0.000341225445826
0.000342077047443
0.000342931031045
0.000343787391194
0.000344646122453
0.000345507219392
0.000346370676581
0.000347236488596
0.000348104650014
0.000348975155417
0.00034984799939
0.000350723176521
0.000351600681402
0.000352480508627
0.000353362652795
0.000354247108508
0.00035513387037
0.000356022932989
0.000356914290978
0.000357807938951
0.000358703871527
0.000359602083327
0.000360502568977
0.000361405323105
0.000362310340343
0.000363217615325
0.000364127142691
0.000365038917082
0.000365952933143
0.000366869185524
0.000367787668875
0.000368708377852
0.000369631307114
0.000370556451323
0.000371483805143
0.000372413363245
0.000373345120298
0.00037427907098
0.000375215209969
0.000376153531946
0.000377094031598
0.000378036703612
0.000378981542682
0.000379928543502
0.000380877700772
0.000381829009193
0.000382782463472
0.000383738058317
0.000384695788439
0.000385655648556
0.000386617633386
0.000387581737651
0.000388547956077
0.000389516283392
0.00039048671433
0.000391459243625
0.000392433866018
0.00039341057625
0.000394389369067
0.000395370239219
0.000396353181457
0.000397338190538
0.00039832526122
0.000399314388267
0.000400305566444
0.000401298790521
0.00040229405527
0.000403291355466
0.00040429068589
0.000405292041324
0.000406295416554
0.000407300806369
0.000408308205562
0.000409317608929
0.00041032901127
0.000411342407387
0.000412357792086
0.000413375160177
0.000414394506473
0.00041541582579
0.000416439112947
0.000417464362767
0.000418491570077
0.000419520729706
0.000420551836487
0.000421584885256
0.000422619870854
0.000423656788122
0.000424695631908
0.00042573639706
0.000426779078433
0.000427823670882
0.000428870169268
0.000429918568453
0.000430968863303
0.00043202104869
0.000433075119485
0.000434131070565
0.000435188896811
0.000436248593106
0.000437310154335
0.000438373575389
0.000439438851162
0.00044050597655
0.000441574946452
0.000442645755773
0.000443718399419
0.000444792872299
0.000445869169329
0.000446947285423
0.000448027215503
0.000449108954491
0.000450192497315
0.000451277838905
0.000452364974194
0.000453453898119
0.000454544605621
0.000455637091642
0.00045673135113
0.000457827379036
0.000458925170312
0.000460024719916
0.000461126022808
0.000462229073952
0.000463333868315
0.000464440400868
0.000465548666583
0.000466658660438
0.000467770377414
0.000468883812494
0.000469998960666
0.00047111581692
0.00047223437625
0.000473354633653
0.00047447658413
0.000475600222684
0.000476725544324
0.000477852544059
0.000478981216903
0.000480111557875
0.000481243561994
0.000482377224285
0.000483512539774
0.000484649503494
0.000485788110477
0.000486928355762
0.000488070234389
0.000489213741402
0.000490358871849
0.000491505620781
0.000492653983251
0.000493803954318
0.000494955529042
0.000496108702489
0.000497263469724
0.000498419825819
0.00049957776585
0.000500737284892
0.000501898378028
0.000503061040341
0.00050422526692
0.000505391052856
0.000506558393242
0.000507727283177
0.000508897717762
0.000510069692102
0.000511243201304
0.00051241824048
0.000513594804743
0.000514772889213
0.00051595248901
0.000517133599258
0.000518316215087
0.000519500331627
0.000520685944012
0.000521873047382
0.000523061636877
0.000524251707642
0.000525443254825
0.000526636273578