/*--------------------------------*- C++ -*----------------------------------*\
  =========                 |
  \\      /  F ield         | OpenFOAM: The Open Source CFD Toolbox
   \\    /   O peration     | Website:  https://openfoam.org
    \\  /    A nd           | Version:  dev
     \\/     M anipulation  |
\*---------------------------------------------------------------------------*/
FoamFile
{
    version     2.0;
    format      ascii;
    class       volScalarField;
    location    "0";
    object      k;
}
// * * * * * * * * * * * * * * * * * * * * * * * * * * * * * * * * * * * * * //

dimensions      [ 0 2 -2 0 0 0 0 ];

internalField   nonuniform List<scalar> 
3000
(
4.9100694356e-06
2.32348407402e-06
1.18826490543e-06
6.78607574732e-07
4.39905271564e-07
3.22998989697e-07
2.63105223293e-07
2.3107415877e-07
2.13278008925e-07
2.03080212649e-07
1.97103454225e-07
1.93560172134e-07
1.9147560506e-07
1.90314394351e-07
1.89794374781e-07
6.63463009956e-06
3.74017206353e-06
2.18197566021e-06
1.32777595992e-06
8.486338255e-07
5.74332687833e-07
4.14231068361e-07
3.19149862658e-07
2.61872794747e-07
2.27016383132e-07
2.05705255724e-07
1.92727506552e-07
1.84988066833e-07
1.80661353458e-07
1.78727115736e-07
4.85757280378e-06
3.16569952835e-06
2.08024775735e-06
1.38807434008e-06
9.48716579593e-07
6.67696727364e-07
4.86606628368e-07
3.69368596508e-07
2.93291983349e-07
2.43927377457e-07
2.12034559315e-07
1.91683020141e-07
1.79065762564e-07
1.71798791195e-07
1.68487523344e-07
3.64711962701e-06
2.50993799004e-06
1.75557854394e-06
1.24744383762e-06
8.9881989172e-07
6.58950063152e-07
4.93641263557e-07
3.80227052281e-07
3.02325550217e-07
2.48987609777e-07
2.12797338786e-07
1.88725591988e-07
1.73213038297e-07
1.64006334568e-07
1.59729373746e-07
2.833475447e-06
2.01549834703e-06
1.46035902155e-06
1.07502065905e-06
8.02787600961e-07
6.08481802493e-07
4.69230257994e-07
3.68743232276e-07
2.96569099739e-07
2.45101252108e-07
2.08816289033e-07
1.83705642692e-07
1.67068218763e-07
1.56969193803e-07
1.52207836357e-07
2.35603937464e-06
1.69744776929e-06
1.24989214991e-06
9.37354665606e-07
7.14275529195e-07
5.52513879472e-07
4.34016191546e-07
3.46712050949e-07
2.82384505392e-07
2.35233967387e-07
2.01076833253e-07
1.76874920603e-07
1.6045889075e-07
1.5031224473e-07
1.45472696023e-07
2.06078050136e-06
1.49411040225e-06
1.10825524751e-06
8.38479511034e-07
6.45532036523e-07
5.05008410635e-07
4.01299083731e-07
3.24123866815e-07
2.66527470266e-07
2.2367567179e-07
1.92133999461e-07
1.69433807928e-07
1.53809840394e-07
1.44037313796e-07
1.39339808967e-07
1.88159640873e-06
1.36659449413e-06
1.01589881769e-06
7.70947779754e-07
5.95995683921e-07
4.68680063355e-07
3.74663201006e-07
3.04530275697e-07
2.51953953742e-07
2.12586756984e-07
1.83384807789e-07
1.62192617457e-07
1.4748823734e-07
1.38228193909e-07
1.33756764815e-07
1.77063632827e-06
1.28632291827e-06
9.56267774103e-07
7.25880038755e-07
5.61605581504e-07
4.42313851206e-07
3.54391356608e-07
2.88880450252e-07
2.39769355923e-07
2.02949441455e-07
1.75570002278e-07
1.5563570155e-07
1.41755289392e-07
1.32986433782e-07
1.28742874233e-07
1.70281687713e-06
1.2363108424e-06
9.18228887234e-07
6.96299963374e-07
5.38274134555e-07
4.2375496729e-07
3.39549849488e-07
2.76952377757e-07
2.30112269078e-07
1.95035969275e-07
1.68963415193e-07
1.4997507086e-07
1.36743381676e-07
1.28376887284e-07
1.24325197611e-07
1.66148598174e-06
1.20536851584e-06
8.94200757152e-07
6.77129112834e-07
5.22696650747e-07
4.10950333174e-07
3.28946541251e-07
2.6812050639e-07
2.22705850626e-07
1.88763231032e-07
1.63572198004e-07
1.45245457133e-07
1.32482850412e-07
1.24415382888e-07
1.20508913244e-07
1.63678786211e-06
1.1865312091e-06
8.79235505846e-07
6.6486852042e-07
5.12436276768e-07
4.02245329582e-07
3.21496427488e-07
2.61703967721e-07
2.17144727571e-07
1.83903633542e-07
1.59275377529e-07
1.41383784068e-07
1.2893795703e-07
1.21076711719e-07
1.1727176029e-07
1.6224164677e-06
1.17530757981e-06
8.70074811051e-07
6.57138255077e-07
5.05761447249e-07
3.96396256942e-07
3.16323896182e-07
2.57101553066e-07
2.13027332067e-07
1.8019587795e-07
1.55905917576e-07
1.38282994554e-07
1.26037286132e-07
1.18308618001e-07
1.14569620154e-07
1.61425391919e-06
1.16876171293e-06
8.6456397181e-07
6.52330301589e-07
5.0146561714e-07
3.92501314678e-07
3.12762205711e-07
2.53827860776e-07
2.10006355788e-07
1.77395375594e-07
1.53293204325e-07
1.35823571513e-07
1.23694660788e-07
1.16044687734e-07
1.12345246641e-07
1.60980496993e-06
1.16505849916e-06
8.61318903374e-07
6.49382754183e-07
4.98727323062e-07
3.89924853564e-07
3.1032241785e-07
2.51510598461e-07
2.07801681437e-07
1.75293611312e-07
1.51282870684e-07
1.33890575118e-07
1.21822272594e-07
1.14213976884e-07
1.10535749653e-07
1.60752527702e-06
1.16304935297e-06
8.59457493095e-07
6.4760310336e-07
4.96996214561e-07
3.88227777752e-07
3.08655054384e-07
2.49873450831e-07
2.06196668546e-07
1.73721977582e-07
1.49744035754e-07
1.3238166495e-07
1.20338134784e-07
1.12747522039e-07
1.09078496844e-07
1.60646060799e-06
1.16201860982e-06
8.58421821706e-07
6.46544334523e-07
4.95908182873e-07
3.87111316595e-07
3.07514828666e-07
2.48715816002e-07
2.0502819116e-07
1.72548447217e-07
1.48569875579e-07
1.31209673408e-07
1.19169494883e-07
1.11582014255e-07
1.07914851494e-07
1.60604583154e-06
1.16153307789e-06
8.5786640708e-07
6.45922704597e-07
4.95225835034e-07
3.86375006769e-07
3.06732059603e-07
2.47894346548e-07
2.04175585858e-07
1.71671705654e-07
1.47675174745e-07
1.30302242197e-07
1.18253621498e-07
1.10661164291e-07
1.06991828612e-07
1.60595663553e-06
1.16133785485e-06
8.57582160834e-07
6.45561374557e-07
4.94796723022e-07
3.85886131693e-07
3.0619084247e-07
2.47307910583e-07
2.03550808129e-07
1.7101515951e-07
1.46993041708e-07
1.29600245106e-07
1.17537016378e-07
1.09934820738e-07
1.06260451668e-07
1.60601259342e-06
1.16128690966e-06
8.57445304413e-07
6.45352063057e-07
4.94524291876e-07
3.85557789913e-07
3.05812791188e-07
2.46885913174e-07
2.0309045673e-07
1.70521967224e-07
1.46472439138e-07
1.2905754173e-07
1.16977383507e-07
1.09363366003e-07
1.05682529064e-07
1.60611700824e-06
1.16129899257e-06
8.57384297679e-07
6.45229672083e-07
4.94348242312e-07
3.85333737313e-07
3.05545419573e-07
2.4657954426e-07
2.02749369966e-07
1.7015052867e-07
1.46075099211e-07
1.28638726847e-07
1.16541225076e-07
1.08913110051e-07
1.05219197651e-07
1.60622265089e-06
1.16133193045e-06
8.57359411354e-07
6.45155953249e-07
4.94231411936e-07
3.85177835785e-07
3.0535374413e-07
2.46355198891e-07
2.02495583798e-07
1.69870835426e-07
1.45773458225e-07
1.28319654082e-07
1.16210056747e-07
1.08576634476e-07
1.04887197565e-07
1.6063108459e-06
1.16136584911e-06
8.57349796909e-07
6.45109100859e-07
4.94151196782e-07
3.85066918996e-07
3.05214294471e-07
2.46189331624e-07
2.02305624197e-07
1.69659470062e-07
1.45543812845e-07
1.28075314891e-07
1.15955026933e-07
1.08315153314e-07
1.04623179673e-07
1.60637668158e-06
1.16139292529e-06
8.57345256493e-07
6.45077008108e-07
4.94093957127e-07
3.84986127631e-07
3.05111261257e-07
2.46065406807e-07
2.02162396006e-07
1.69498873127e-07
1.45368167748e-07
1.2788730688e-07
1.15757621859e-07
1.08111443206e-07
1.04416161094e-07
1.60642173361e-06
1.16141131053e-06
8.57341340489e-07
6.45053170018e-07
4.94051517784e-07
3.84925917541e-07
3.05033979507e-07
2.45971850009e-07
2.02053599541e-07
1.69376187656e-07
1.45233283141e-07
1.27742230728e-07
1.15604618541e-07
1.07952943311e-07
1.0425466028e-07
1.60644991723e-06
1.16142180731e-06
8.57336508435e-07
6.4503419477e-07
4.94018972339e-07
3.84880117828e-07
3.04975216482e-07
2.45900543416e-07
2.01970395886e-07
1.69282014365e-07
1.45129365732e-07
1.2763007782e-07
1.15485980373e-07
1.07829751683e-07
1.04128960193e-07
1.60646555193e-06
1.1614261616e-06
8.57330577513e-07
6.45018371178e-07
4.93993348669e-07
3.84844687349e-07
3.04930015159e-07
2.45845748773e-07
2.01906392986e-07
1.69209433768e-07
1.45049096043e-07
1.27543255302e-07
1.15393958807e-07
1.07734057176e-07
1.04031236215e-07
1.60647249258e-06
1.16142622462e-06
8.57323906346e-07
6.4500486487e-07
4.93972812038e-07
3.84816929534e-07
3.04894926775e-07
2.45803361675e-07
2.01856923176e-07
1.69153307304e-07
1.4498695791e-07
1.27475961553e-07
1.15322553378e-07
1.07659735956e-07
1.03955301418e-07
1.60647384403e-06
1.16142364375e-06
8.57316991879e-07
6.44993260146e-07
4.93956180098e-07
3.84794992146e-07
3.04867503216e-07
2.45770403228e-07
2.018185402e-07
1.69109786554e-07
1.44938768378e-07
1.27423748069e-07
1.15267118241e-07
1.07602009963e-07
1.0389630627e-07
1.60647184698e-06
1.16141956916e-06
8.57310228478e-07
6.4498331061e-07
4.93942644166e-07
3.84777560675e-07
3.04845969249e-07
2.45744678756e-07
2.0178867203e-07
1.69075967323e-07
1.44901340034e-07
1.27383196459e-07
1.15224058393e-07
1.07557162763e-07
1.03850467894e-07
1.60646812517e-06
1.16141492307e-06
8.5730394088e-07
6.44974857311e-07
4.93931624824e-07
3.84763674329e-07
3.04829011539e-07
2.45724548486e-07
2.0176538002e-07
1.69049643212e-07
1.44872234187e-07
1.27351675347e-07
1.15190592812e-07
1.07522309169e-07
1.03814843876e-07
1.60646373392e-06
1.16141026824e-06
8.57298311437e-07
6.44967752891e-07
4.93922675326e-07
3.84752606425e-07
3.04815638475e-07
2.45708770683e-07
2.01747189569e-07
1.69029127873e-07
1.44849578274e-07
1.27327155838e-07
1.15164569953e-07
1.07495211666e-07
1.03787149365e-07
1.60645932186e-06
1.16140594183e-06
8.57293420735e-07
6.44961850164e-07
4.93915435753e-07
3.84743792957e-07
3.0480508866e-07
2.4569639424e-07
2.01732970234e-07
1.69013125675e-07
1.4483192981e-07
1.27308071033e-07
1.15144324605e-07
1.07474135759e-07
1.03765611686e-07
1.60645524571e-06
1.16140211268e-06
8.57289273062e-07
6.44956999658e-07
4.93909607317e-07
3.84736787499e-07
3.04796769606e-07
2.45686683773e-07
2.01721849684e-07
1.69000636743e-07
1.44818174482e-07
1.27293208933e-07
1.15128567133e-07
1.07457736912e-07
1.03748855998e-07
1.60645167432e-06
1.16139884007e-06
8.57285824072e-07
6.44953054327e-07
4.93904938655e-07
3.84731232272e-07
3.04790215839e-07
2.45679066666e-07
2.01713151306e-07
1.6899088663e-07
1.44807449395e-07
1.27281630702e-07
1.15116298062e-07
1.07444972626e-07
1.03735816003e-07
1.60644865844e-06
1.16139611573e-06
8.57283002297e-07
6.44949874724e-07
4.93901217729e-07
3.84726838634e-07
3.04785059396e-07
2.45673094825e-07
2.01706348324e-07
1.68983273875e-07
1.44799085082e-07
1.27272608172e-07
1.15106742186e-07
1.07435034221e-07
1.03725664509e-07
1.60644617984e-06
1.16139389369e-06
8.57280724563e-07
6.44947333115e-07
4.93898266222e-07
3.84723373009e-07
3.04781008246e-07
2.45668416248e-07
2.01701029243e-07
1.68977330128e-07
1.44792561141e-07
1.27265575815e-07
1.15099297688e-07
1.07427294016e-07
1.03717759496e-07
1.60644418532e-06
1.16139211049e-06
8.57278906295e-07
6.44945315866e-07
4.93895935192e-07
3.84720646477e-07
3.04777830247e-07
2.45664753885e-07
2.01696872052e-07
1.68972690109e-07
1.44787472515e-07
1.27260093966e-07
1.15093497e-07
1.07421264508e-07
1.03711602412e-07
1.60644260435e-06
1.16139069705e-06
8.57277467831e-07
6.44943724379e-07
4.93894101284e-07
3.84718506557e-07
3.04775340847e-07
2.45661889467e-07
2.01693624463e-07
1.68969068619e-07
1.44783503598e-07
1.272558205e-07
1.15088976569e-07
1.07416566821e-07
1.03706805868e-07
1.6064413659e-06
1.16138958775e-06
8.57276338052e-07
6.44942475026e-07
4.93892663197e-07
3.84716830614e-07
3.04773393492e-07
2.45659651e-07
2.01691088686e-07
1.68966242786e-07
1.44780408297e-07
1.27252489005e-07
1.15085453553e-07
1.07412906335e-07
1.03703068701e-07
1.60644040585e-06
1.16138872385e-06
8.57275455726e-07
6.44941498136e-07
4.93891538567e-07
3.84715520443e-07
3.04771871975e-07
2.45657903055e-07
2.0168910964e-07
1.68964038388e-07
1.44777994606e-07
1.27249891908e-07
1.15082707757e-07
1.07410053812e-07
1.03700156636e-07
1.6064396651e-06
1.16138805423e-06
8.57274769346e-07
6.44940736576e-07
4.93890660955e-07
3.84714497744e-07
3.04770684407e-07
2.45656539079e-07
2.01687565776e-07
1.68962319215e-07
1.44776112691e-07
1.2724786742e-07
1.15080567697e-07
1.07407830809e-07
1.03697887357e-07
1.60643909607e-06
1.16138753729e-06
8.57274237121e-07
6.44940144284e-07
4.93889977286e-07
3.84713700433e-07
3.0476975828e-07
2.45655475354e-07
2.01686361876e-07
1.68960978802e-07
1.44774645606e-07
1.27246289398e-07
1.15078899768e-07
1.07406098365e-07
1.03696118918e-07
1.60643866001e-06
1.16138713908e-06
8.57273825229e-07
6.44939684391e-07
4.93889445369e-07
3.8471307942e-07
3.04769036553e-07
2.45654646206e-07
2.01685423406e-07
1.68959933936e-07
1.44773502067e-07
1.27245059474e-07
1.15077599852e-07
1.07404748232e-07
1.03694740768e-07
1.60643832613e-06
1.16138683271e-06
8.57273506849e-07
6.44939327681e-07
4.93889031898e-07
3.84712596075e-07
3.04768474416e-07
2.45654000157e-07
2.01684692051e-07
1.68959119622e-07
1.44772610843e-07
1.27244100944e-07
1.15076586798e-07
1.07403696064e-07
1.03693666779e-07
1.60643807113e-06
1.16138659742e-06
8.57273261069e-07
6.44939051279e-07
4.93888710726e-07
3.84712220086e-07
3.04768036773e-07
2.45653496953e-07
2.01684122252e-07
1.68958485102e-07
1.4477191635e-07
1.27243353982e-07
1.15075797347e-07
1.07402876134e-07
1.03692829845e-07
1.60643787624e-06
1.16138641662e-06
8.57273071342e-07
6.44938837163e-07
4.9388846136e-07
3.84711927726e-07
3.04767696165e-07
2.45653105108e-07
2.01683678413e-07
1.68957990752e-07
1.44771375229e-07
1.27242771943e-07
1.15075182178e-07
1.07402237207e-07
1.03692177665e-07
1.6064377272e-06
1.16138627777e-06
8.57272924938e-07
6.44938671364e-07
4.93888267804e-07
3.84711700458e-07
3.04767431151e-07
2.45652800047e-07
2.01683332748e-07
1.68957605667e-07
1.44770953644e-07
1.27242318448e-07
1.15074702849e-07
1.07401739352e-07
1.03691669479e-07
1.60643761327e-06
1.16138617134e-06
8.57272812155e-07
6.44938543081e-07
4.93888117643e-07
3.84711523849e-07
3.04767224992e-07
2.45652562597e-07
2.01683063583e-07
1.68957305734e-07
1.44770625232e-07
1.27241965142e-07
1.15074329392e-07
1.07401351448e-07
1.03691273519e-07
1.60643752586e-06
1.16138608947e-06
8.57272725116e-07
6.44938443805e-07
4.93888001152e-07
3.84711386627e-07
3.04767064646e-07
2.45652377794e-07
2.0168285402e-07
1.68957072153e-07
1.44770369426e-07
1.27241689914e-07
1.15074038445e-07
1.07401049234e-07
1.03690965019e-07
1.60643745937e-06
1.16138602649e-06
8.57272657885e-07
6.44938366913e-07
4.93887910776e-07
3.84711280021e-07
3.04766939971e-07
2.45652233997e-07
2.01682690881e-07
1.68956890263e-07
1.44770170193e-07
1.27241475528e-07
1.15073811797e-07
1.07400813795e-07
1.03690724682e-07
1.60643740837e-06
1.16138597817e-06
8.57272606073e-07
6.44938307446e-07
4.93887840694e-07
3.84711197223e-07
3.04766843034e-07
2.45652122128e-07
2.01682563904e-07
1.6895674865e-07
1.44770015042e-07
1.27241308554e-07
1.15073635257e-07
1.07400630396e-07
1.03690537459e-07
1.60643736945e-06
1.16138594123e-06
8.5727256627e-07
6.44938261529e-07
4.93887786412e-07
3.84711132964e-07
3.04766767702e-07
2.4565203512e-07
2.01682465099e-07
1.68956638412e-07
1.4476989424e-07
1.27241178519e-07
1.15073497758e-07
1.07400487551e-07
1.03690391631e-07
1.60643734075e-06
1.16138591337e-06
8.5727253583e-07
6.44938226159e-07
4.9388774442e-07
3.84711083124e-07
3.04766709193e-07
2.45651967474e-07
2.0168238823e-07
1.68956552616e-07
1.44769800195e-07
1.27241077273e-07
1.15073390685e-07
1.07400376301e-07
1.03690278057e-07
1.60643731972e-06
1.16138589244e-06
8.57272512603e-07
6.44938198964e-07
4.93887711965e-07
3.84711044511e-07
3.04766663773e-07
2.45651914908e-07
2.0168232845e-07
1.68956485861e-07
1.44769726994e-07
1.27240998449e-07
1.15073307315e-07
1.07400289676e-07
1.03690189615e-07
1.60643730393e-06
1.1613858767e-06
8.57272494974e-07
6.44938178114e-07
4.93887686957e-07
3.84711014638e-07
3.04766628555e-07
2.45651874085e-07
2.01682281982e-07
1.68956433938e-07
1.44769670039e-07
1.27240937102e-07
1.15073242416e-07
1.07400222233e-07
1.03690120756e-07
1.60643729168e-06
1.16138586481e-06
8.57272481623e-07
6.44938162203e-07
4.93887667738e-07
3.84710991566e-07
3.04766601279e-07
2.45651842408e-07
2.01682245885e-07
1.68956393569e-07
1.44769625738e-07
1.27240889366e-07
1.15073191909e-07
1.07400169739e-07
1.03690067154e-07
1.60643728365e-06
1.1613858563e-06
8.57272471695e-07
6.44938150153e-07
4.93887653022e-07
3.84710973792e-07
3.04766580187e-07
2.45651817856e-07
2.01682217864e-07
1.68956362206e-07
1.44769591295e-07
1.27240852239e-07
1.15073152614e-07
1.07400128894e-07
1.03690025447e-07
1.60643727793e-06
1.16138585022e-06
8.57272464402e-07
6.4493814108e-07
4.93887641798e-07
3.84710960129e-07
3.04766563897e-07
2.45651798845e-07
2.01682196132e-07
1.68956337853e-07
1.44769564529e-07
1.27240823375e-07
1.15073122055e-07
1.07400097122e-07
1.03689993001e-07
1.60643727404e-06
1.16138584598e-06
8.57272459063e-07
6.44938134296e-07
4.93887633278e-07
3.84710949666e-07
3.04766551354e-07
2.45651784152e-07
2.01682179296e-07
1.68956318964e-07
1.44769543747e-07
1.27240800949e-07
1.15073098303e-07
1.0740007242e-07
1.03689967771e-07
1.6064372723e-06
1.16138584341e-06
8.57272455423e-07
6.44938129362e-07
4.93887626891e-07
3.84710941704e-07
3.04766541733e-07
2.45651772828e-07
2.01682166279e-07
1.68956304327e-07
1.44769527628e-07
1.27240783538e-07
1.15073079852e-07
1.0740005323e-07
1.03689948166e-07
1.6064372717e-06
1.16138584192e-06
8.5727245298e-07
6.44938125814e-07
4.93887622151e-07
3.8471093569e-07
3.04766534385e-07
2.45651764124e-07
2.0168215624e-07
1.6895629301e-07
1.44769515142e-07
1.2724077004e-07
1.15073065536e-07
1.07400038329e-07
1.03689932944e-07
1.60643727171e-06
1.16138584122e-06
8.57272451453e-07
6.4493812337e-07
4.93887618709e-07
3.8471093119e-07
3.0476652881e-07
2.45651757466e-07
2.01682148517e-07
1.68956284276e-07
1.44769505486e-07
1.27240759582e-07
1.1507305444e-07
1.07400026775e-07
1.03689921133e-07
1.60643727283e-06
1.16138584142e-06
8.57272450774e-07
6.4493812181e-07
4.93887616268e-07
3.8471092788e-07
3.0476652462e-07
2.45651752404e-07
2.01682142599e-07
1.68956277553e-07
1.44769498031e-07
1.272407515e-07
1.15073045847e-07
1.07400017823e-07
1.03689911982e-07
1.60643727441e-06
1.16138584208e-06
8.57272450639e-07
6.44938120916e-07
4.93887614638e-07
3.84710925511e-07
3.04766521516e-07
2.45651748577e-07
2.01682138087e-07
1.68956272397e-07
1.44769492296e-07
1.27240745263e-07
1.15073039213e-07
1.07400010902e-07
1.03689904905e-07
1.60643727575e-06
1.16138584302e-06
8.57272450916e-07
6.44938120531e-07
4.93887613598e-07
3.84710923838e-07
3.0476651924e-07
2.45651745718e-07
2.01682134674e-07
1.68956268469e-07
1.44769487898e-07
1.27240740465e-07
1.15073034098e-07
1.07400005563e-07
1.0368989944e-07
1.60643727773e-06
1.16138584432e-06
8.57272451516e-07
6.44938120509e-07
4.93887613005e-07
3.84710922718e-07
3.04766517612e-07
2.45651743611e-07
2.01682132112e-07
1.68956265487e-07
1.44769484545e-07
1.27240736793e-07
1.15073030171e-07
1.07400001457e-07
1.03689895236e-07
1.60643728011e-06
1.1613858459e-06
8.57272452381e-07
6.44938120772e-07
4.93887612758e-07
3.84710922014e-07
3.04766516483e-07
2.45651742083e-07
2.01682130213e-07
1.68956263247e-07
1.44769482001e-07
1.27240733994e-07
1.15073027168e-07
1.07399998308e-07
1.03689892007e-07
1.60643728283e-06
1.16138584774e-06
8.57272453485e-07
6.44938121302e-07
4.93887612811e-07
3.84710921656e-07
3.04766515753e-07
2.4565174101e-07
2.01682128827e-07
1.68956261582e-07
1.44769480091e-07
1.27240731875e-07
1.15073024885e-07
1.07399995908e-07
1.03689889544e-07
1.60643728566e-06
1.1613858496e-06
8.57272454721e-07
6.44938122015e-07
4.93887613094e-07
3.84710921565e-07
3.04766515334e-07
2.45651740296e-07
2.01682127848e-07
1.68956260371e-07
1.44769478672e-07
1.27240730285e-07
1.15073023161e-07
1.07399994093e-07
1.03689887677e-07
1.6064372887e-06
1.16138585169e-06
8.57272456122e-07
6.44938122909e-07
4.93887613566e-07
3.84710921684e-07
3.0476651516e-07
2.45651739863e-07
2.01682127185e-07
1.68956259504e-07
1.44769477638e-07
1.2724072911e-07
1.15073021877e-07
1.0739999273e-07
1.03689886272e-07
1.6064372919e-06
1.16138585398e-06
8.57272457703e-07
6.44938123949e-07
4.93887614202e-07
3.84710921985e-07
3.04766515174e-07
2.45651739649e-07
2.01682126773e-07
1.68956258918e-07
1.44769476902e-07
1.27240728256e-07
1.15073020931e-07
1.0739999172e-07
1.03689885229e-07
1.60643729547e-06
1.16138585642e-06
8.57272459427e-07
6.44938125146e-07
4.93887614981e-07
3.8471092243e-07
3.04766515358e-07
2.45651739607e-07
2.0168212655e-07
1.68956258544e-07
1.44769476404e-07
1.27240727656e-07
1.15073020251e-07
1.07399990988e-07
1.03689884467e-07
1.60643729891e-06
1.16138585899e-06
8.57272461279e-07
6.44938126422e-07
4.93887615834e-07
3.84710922975e-07
3.04766515652e-07
2.456517397e-07
2.01682126482e-07
1.68956258337e-07
1.44769476086e-07
1.27240727248e-07
1.15073019778e-07
1.07399990469e-07
1.03689883925e-07
1.60643730233e-06
1.16138586142e-06
8.57272463022e-07
6.44938127686e-07
4.93887616726e-07
3.84710923585e-07
3.04766516035e-07
2.45651739903e-07
2.01682126525e-07
1.68956258264e-07
1.44769475914e-07
1.27240726997e-07
1.15073019467e-07
1.07399990119e-07
1.03689883554e-07
1.60643730605e-06
1.16138586378e-06
8.5727246472e-07
6.44938128946e-07
4.93887617654e-07
3.84710924241e-07
3.04766516474e-07
2.4565174017e-07
2.0168212666e-07
1.68956258287e-07
1.44769475851e-07
1.27240726863e-07
1.15073019283e-07
1.07399989898e-07
1.03689883317e-07
1.60643730959e-06
1.16138586607e-06
8.57272466419e-07
6.44938130213e-07
4.93887618593e-07
3.84710924933e-07
3.04766516968e-07
2.45651740509e-07
2.01682126865e-07
1.6895625839e-07
1.44769475871e-07
1.27240726822e-07
1.15073019195e-07
1.0739998978e-07
1.03689883183e-07
1.60643731299e-06
1.16138586839e-06
8.57272468127e-07
6.44938131496e-07
4.93887619562e-07
3.84710925656e-07
3.04766517496e-07
2.45651740883e-07
2.01682127124e-07
1.68956258553e-07
1.44769475959e-07
1.27240726852e-07
1.15073019185e-07
1.07399989743e-07
1.0368988313e-07
1.6064373159e-06
1.16138587078e-06
8.57272469926e-07
6.44938132846e-07
4.93887620569e-07
3.8471092641e-07
3.04766518062e-07
2.45651741295e-07
2.01682127426e-07
1.68956258764e-07
1.44769476101e-07
1.27240726939e-07
1.15073019229e-07
1.07399989763e-07
1.03689883138e-07
1.60643731929e-06
1.1613858734e-06
8.5727247186e-07
6.44938134261e-07
4.93887621618e-07
3.84710927192e-07
3.04766518652e-07
2.45651741744e-07
2.01682127759e-07
1.68956259011e-07
1.44769476279e-07
1.27240727072e-07
1.15073019325e-07
1.07399989835e-07
1.03689883198e-07
1.60643732292e-06
1.16138587606e-06
8.57272473798e-07
6.4493813569e-07
4.93887622688e-07
3.84710927996e-07
3.04766519266e-07
2.45651742209e-07
2.01682128116e-07
1.68956259285e-07
1.44769476489e-07
1.2724072723e-07
1.15073019453e-07
1.07399989943e-07
1.03689883295e-07
1.60643732634e-06
1.16138587859e-06
8.57272475676e-07
6.44938137084e-07
4.93887623735e-07
3.84710928791e-07
3.0476651988e-07
2.45651742691e-07
2.01682128494e-07
1.68956259583e-07
1.44769476727e-07
1.27240727424e-07
1.15073019615e-07
1.07399990081e-07
1.03689883423e-07
1.60643733023e-06
1.16138588125e-06
8.5727247757e-07
6.44938138488e-07
4.93887624796e-07
3.84710929608e-07
3.04766520512e-07
2.45651743186e-07
2.01682128887e-07
1.68956259898e-07
1.44769476983e-07
1.27240727636e-07
1.15073019795e-07
1.07399990241e-07
1.03689883573e-07
1.60643733394e-06
1.16138588395e-06
8.57272479539e-07
6.44938139942e-07
4.93887625881e-07
3.84710930444e-07
3.0476652116e-07
2.45651743693e-07
2.01682129291e-07
1.68956260225e-07
1.44769477253e-07
1.27240727866e-07
1.15073019992e-07
1.07399990418e-07
1.0368988374e-07
1.60643733763e-06
1.16138588663e-06
8.5727248151e-07
6.44938141406e-07
4.93887626985e-07
3.84710931291e-07
3.04766521817e-07
2.45651744217e-07
2.01682129709e-07
1.68956260563e-07
1.44769477534e-07
1.27240728105e-07
1.15073020202e-07
1.0739999061e-07
1.03689883922e-07
1.60643734079e-06
1.16138588918e-06
8.57272483419e-07
6.44938142843e-07
4.93887628085e-07
3.84710932134e-07
3.04766522477e-07
2.45651744739e-07
2.01682130132e-07
1.68956260911e-07
1.44769477825e-07
1.27240728352e-07
1.15073020421e-07
1.07399990809e-07
1.03689884114e-07
1.60643734436e-06
1.16138589167e-06
8.57272485257e-07
6.44938144245e-07
4.93887629163e-07
3.84710932972e-07
3.04766523139e-07
2.45651745271e-07
2.0168213056e-07
1.68956261266e-07
1.44769478121e-07
1.27240728606e-07
1.15073020648e-07
1.07399991019e-07
1.03689884315e-07
1.60643734836e-06
1.16138589415e-06
8.57272487047e-07
6.44938145612e-07
4.93887630229e-07
3.84710933816e-07
3.04766523804e-07
2.45651745805e-07
2.01682130991e-07
1.68956261623e-07
1.44769478423e-07
1.27240728868e-07
1.1507302088e-07
1.07399991235e-07
1.03689884522e-07
1.60643735169e-06
1.16138589649e-06
8.57272488806e-07
6.44938146965e-07
4.93887631287e-07
3.84710934644e-07
3.04766524465e-07
2.45651746329e-07
2.01682131428e-07
1.68956261984e-07
1.44769478733e-07
1.27240729134e-07
1.15073021119e-07
1.07399991455e-07
1.03689884733e-07
1.60643735459e-06
1.16138589883e-06
8.57272490604e-07
6.44938148343e-07
4.93887632352e-07
3.84710935484e-07
3.04766525132e-07
2.45651746868e-07
2.01682131864e-07
1.68956262345e-07
1.44769479037e-07
1.27240729402e-07
1.15073021358e-07
1.07399991679e-07
1.03689884949e-07
1.60643735797e-06
1.16138590144e-06
8.57272492534e-07
6.44938149774e-07
4.9388763344e-07
3.84710936324e-07
3.04766525793e-07
2.45651747402e-07
2.01682132303e-07
1.68956262711e-07
1.44769479349e-07
1.27240729675e-07
1.15073021604e-07
1.07399991906e-07
1.03689885169e-07
1.60643736177e-06
1.16138590418e-06
8.57272494519e-07
6.44938151251e-07
4.9388763456e-07
3.84710937191e-07
3.0476652647e-07
2.45651747946e-07
2.01682132743e-07
1.6895626308e-07
1.44769479661e-07
1.27240729949e-07
1.1507302185e-07
1.07399992136e-07
1.0368988539e-07
1.60643736521e-06
1.16138590679e-06
8.572724965e-07
6.44938152739e-07
4.9388763569e-07
3.84710938056e-07
3.04766527157e-07
2.45651748493e-07
2.01682133189e-07
1.68956263449e-07
1.44769479978e-07
1.27240730224e-07
1.150730221e-07
1.07399992367e-07
1.03689885612e-07
1.60643736908e-06
1.16138590949e-06
8.5727249851e-07
6.44938154247e-07
4.93887636823e-07
3.84710938933e-07
3.04766527847e-07
2.45651749045e-07
2.01682133636e-07
1.68956263823e-07
1.44769480295e-07
1.272407305e-07
1.15073022345e-07
1.07399992598e-07
1.03689885835e-07
1.60643737279e-06
1.16138591219e-06
8.57272500462e-07
6.4493815571e-07
4.93887637938e-07
3.84710939789e-07
3.04766528523e-07
2.45651749588e-07
2.01682134083e-07
1.68956264191e-07
1.44769480609e-07
1.27240730776e-07
1.15073022596e-07
1.07399992827e-07
1.03689886056e-07
1.60643737659e-06
1.16138591479e-06
8.57272502322e-07
6.44938157086e-07
4.93887639006e-07
3.8471094063e-07
3.04766529189e-07
2.45651750121e-07
2.01682134519e-07
1.68956264552e-07
1.44769480916e-07
1.27240731045e-07
1.15073022837e-07
1.07399993051e-07
1.0368988627e-07
1.60643738006e-06
1.16138591717e-06
8.57272504066e-07
6.44938158419e-07
4.93887640036e-07
3.84710941435e-07
3.04766529824e-07
2.45651750629e-07
2.01682134933e-07
1.68956264901e-07
1.4476948121e-07
1.27240731301e-07
1.15073023064e-07
1.07399993261e-07
1.03689886472e-07
1.6064373837e-06
1.16138591976e-06
8.57272505908e-07
6.44938159756e-07
4.93887641029e-07
3.84710942206e-07
3.0476653042e-07
2.45651751106e-07
2.0168213532e-07
1.68956265218e-07
1.44769481481e-07
1.27240731537e-07
1.15073023275e-07
1.07399993456e-07
1.03689886657e-07
1.60643738708e-06
1.16138592228e-06
8.57272507661e-07
6.44938160987e-07
4.9388764193e-07
3.84710942873e-07
3.04766530934e-07
2.45651751508e-07
2.01682135642e-07
1.68956265487e-07
1.44769481706e-07
1.27240731729e-07
1.15073023446e-07
1.07399993615e-07
1.03689886809e-07
1.60643739078e-06
1.16138592457e-06
8.57272509072e-07
6.44938161906e-07
4.93887642552e-07
3.84710943322e-07
3.04766531271e-07
2.45651751766e-07
2.01682135846e-07
1.68956265652e-07
1.44769481844e-07
1.27240731846e-07
1.15073023552e-07
1.07399993714e-07
1.03689886903e-07
1.8979437478e-07
1.90314394352e-07
1.91475605059e-07
1.93560172131e-07
1.97103454222e-07
2.03080212646e-07
2.13278008922e-07
2.31074158769e-07
2.63105223292e-07
3.22998989699e-07
4.3990527157e-07
6.78607574754e-07
1.18826490542e-06
2.32348407385e-06
4.91006943506e-06
1.78727115735e-07
1.80661353456e-07
1.84988066831e-07
1.92727506544e-07
2.05705255718e-07
2.2701638313e-07
2.61872794746e-07
3.19149862656e-07
4.14231068374e-07
5.74332687844e-07
8.48633825559e-07
1.32777596004e-06
2.18197566039e-06
3.74017206371e-06
6.63463009955e-06
1.68487523346e-07
1.71798791198e-07
1.79065762567e-07
1.9168302014e-07
2.12034559316e-07
2.43927377455e-07
2.93291983344e-07
3.69368596515e-07
4.86606628377e-07
6.67696727405e-07
9.48716579709e-07
1.38807434031e-06
2.08024775773e-06
3.16569952883e-06
4.85757280432e-06
1.59729373746e-07
1.64006334569e-07
1.73213038301e-07
1.88725591991e-07
2.12797338789e-07
2.48987609774e-07
3.02325550219e-07
3.80227052285e-07
4.93641263563e-07
6.5895006318e-07
8.98819891789e-07
1.24744383775e-06
1.75557854414e-06
2.50993799028e-06
3.64711962683e-06
1.52207836355e-07
1.56969193801e-07
1.67068218762e-07
1.83705642695e-07
2.08816289042e-07
2.45101252117e-07
2.96569099747e-07
3.68743232288e-07
4.6923025801e-07
6.08481802504e-07
8.02787600982e-07
1.07502065905e-06
1.46035902148e-06
2.01549834667e-06
2.83347544557e-06
1.45472696024e-07
1.50312244729e-07
1.6045889075e-07
1.76874920605e-07
2.01076833256e-07
2.35233967385e-07
2.82384505391e-07
3.46712050949e-07
4.34016191528e-07
5.52513879438e-07
7.14275529145e-07
9.37354665506e-07
1.24989214966e-06
1.69744776854e-06
2.35603937261e-06
1.39339808969e-07
1.44037313798e-07
1.53809840396e-07
1.69433807926e-07
1.92133999459e-07
2.23675671784e-07
2.66527470252e-07
3.24123866791e-07
4.01299083693e-07
5.05008410572e-07
6.45532036415e-07
8.38479510873e-07
1.1082552472e-06
1.49411040164e-06
2.06078050011e-06
1.33756764815e-07
1.38228193911e-07
1.47488237337e-07
1.62192617453e-07
1.83384807782e-07
2.1258675697e-07
2.51953953712e-07
3.04530275653e-07
3.74663200927e-07
4.68680063237e-07
5.95995683743e-07
7.70947779491e-07
1.01589881727e-06
1.36659449341e-06
1.88159640739e-06
1.28742874233e-07
1.3298643378e-07
1.41755289388e-07
1.55635701545e-07
1.75570002268e-07
2.02949441436e-07
2.3976935589e-07
2.88880450193e-07
3.54391356517e-07
4.42313851069e-07
5.61605581315e-07
7.25880038482e-07
9.5626777371e-07
1.2863229177e-06
1.77063632722e-06
1.24325197612e-07
1.28376887281e-07
1.36743381673e-07