/*--------------------------------*- C++ -*----------------------------------*\
| =========                 |                                                 |
| \\      /  F ield         | OpenFOAM: The Open Source CFD Toolbox           |
|  \\    /   O peration     | Version:  dev                                   |
|   \\  /    A nd           | Web:      www.OpenFOAM.org                      |
|    \\/     M anipulation  |                                                 |
\*---------------------------------------------------------------------------*/
FoamFile
{
    version     2.0;
    format      ascii;
    class       volScalarField;
    location    "0";
    object      moment.0.populationBalance;
}
// * * * * * * * * * * * * * * * * * * * * * * * * * * * * * * * * * * * * * //

dimensions      [0 -3 0 0 0 0 0];

internalField   nonuniform List<scalar> 
500
(
1.5968016e-05
0.000143137296
0.00039601
0.000773062416
0.001272776976
0.001893642256
0.002634152976
0.00349281
0.004468120336
0.005558597136
0.006762759696
0.008079133456
0.00950625
0.011042647056
0.012686868496
0.014437464336
0.016292990736
0.01825201
0.020313090576
0.022474807056
0.024735740176
0.027094476816
0.02954961
0.032099738896
0.034743468816
0.037479411216
0.040306183696
0.04322241
0.046226720016
0.049317749776
0.052494141456
0.055754543376
0.05909761
0.062522001936
0.066026385936
0.069609434896
0.073269827856
0.07700625
0.080817392656
0.084701953296
0.088658635536
0.092686149136
0.09678321
0.100948540176
0.105180867856
0.109478927376
0.113841459216
0.11826721
0.122754932496
0.127303385616
0.131911334416
0.136577550096
0.14130081
0.146079897616
0.150913602576
0.155800720656
0.160740053776
0.16573041
0.170770603536
0.175859454736
0.180995790096
0.186178442256
0.19140625
0.196678058256
0.201992718096
0.207349086736
0.212746027536
0.21818241
0.223657109776
0.229169008656
0.234716994576
0.240299961616
0.24591681
0.251566446096
0.257247782416
0.262959737616
0.268701236496
0.27447121
0.280268595216
0.286092335376
0.291941379856
0.297814684176
0.30371121
0.309629925136
0.315569803536
0.321529825296
0.327508976656
0.33350625
0.339520643856
0.345551162896
0.351596817936
0.357656625936
0.36372961
0.369814799376
0.375911229456
0.382017941776
0.388133984016
0.39425841
0.400390279696
0.406528659216
0.412672620816
0.418821242896
0.42497361
0.431128812816
0.437285948176
0.443444119056
0.449602434576
0.45576001
0.461915966736
0.468069432336
0.474219540496
0.480365431056
0.48650625
0.492641149456
0.498769287696
0.504889829136
0.511001944336
0.51710481
0.523197608976
0.529279530256
0.535349768976
0.541407526416
0.54745201
0.553482433296
0.559498016016
0.565526352659
0.571735525392
0.578149671235
0.584764432422
0.591575476752
0.598578497584
0.605769213838
0.61314337
0.620696736114
0.628425107788
0.636324306192
0.644390178058
0.652618595679
0.661005456912
0.669546685175
0.678238229447
0.687076064272
0.696056189753
0.705174631557
0.714427440912
0.723810694609
0.733320495
0.74295297
0.752704273086
0.762570583296
0.772548105232
0.782633069056
0.792821730494
0.803110370832
0.81349529692
0.823972841169
0.834539361552
0.845191241605
0.855924890425
0.866736742672
0.877623258567
0.888580923895
0.89960625
0.910695773791
0.921846057738
0.933053689872
0.944315283788
0.955726979267
0.967465629793
0.979526787119
0.991902055665
1.00458309651
1.01756162742
1.03082942279
1.04437831371
1.05820018794
1.07228698988
1.08663072062
1.10122343791
1.11605725615
1.13112434643
1.14641693649
1.16192731075
1.17764781027
1.19357083281
1.20968883277
1.22599432123
1.24247986593
1.25913809128
1.27596167835
1.29294336489
1.31007594529
1.32735227063
1.34476524864
1.36230784374
1.37997307699
1.39775402613
1.41564382556
1.43363566635
1.45172279624
1.46989851961
1.48815619755
1.50648924779
1.52489114471
1.54335541939
1.56187565956
1.58044550962
1.59905867062
1.61770890031
1.63639001306
1.65509587995
1.6738204287
1.69255764371
1.71130156603
1.73004629339
1.74878598019
1.76751483747
1.78622713297
1.80491719107
1.82357939283
1.84220817598
1.86079803489
1.87934352063
1.89783924091
1.91627986012
1.93466009931
1.95297473621
1.97121860519
1.98938659731
2.00747366029
2.0254747985
2.04338507299
2.06119960149
2.07891355837
2.09652217467
2.11402073812
2.13140459309
2.14866914062
2.16580983844
2.18282220091
2.19970179907
2.21644426065
2.23304527001
2.24950056819
2.26580595291
2.28195727854
2.29795045611
2.31378145334
2.32944629459
2.34494106091
2.36026189
2.37540497622
2.39036657062
2.4051429809
2.41973057143
2.43412576323
2.44832503402
2.46232491816
2.47612200667
2.48971294727
2.50309444431
2.51626325883
2.52921620853
2.54195016776
2.55446206755
2.56674889561
2.57880769629
2.59063557062
2.6022296763
2.61358722768
2.62470549579
2.63558180833
2.64621354964
2.65659816075
2.66673313936
2.67661603982
2.68624447315
2.69561610704
2.70472866585
2.71357993059
2.72216773896
2.73048998529
2.73854462062
2.74632965263
2.75384314567
2.76108322075
2.76804805556
2.77473588445
2.78114499843
2.78727374519
2.79312052906
2.79868381107
2.8039621089
2.80895399688
2.81365810603
2.81807312403
2.82219779523
2.82603092063
2.8295713579
2.83281802139
2.83576988211
2.83842596774
2.8407853626
2.84284720771
2.84461070075
2.84607509604
2.84723970459
2.84810389408
2.84866708884
2.84892876987
2.84888847485
2.8485457981
2.84790039062
2.8469519601
2.84570027085
2.84414514387
2.84228645684
2.84012414408
2.83765819659
2.83488866204
2.83181564475
2.82843930571
2.8247598626
2.82077758974
2.81649281811
2.81190593539
2.8070173859
2.80182767063
2.79633734723
2.79054703003
2.78445739003
2.77806915488
2.7713831089
2.76440009307
2.75712100506
2.74954679919
2.74167848643
2.73351713445
2.72506386756
2.71631986675
2.70728636967
2.69796467063
2.68835612062
2.67846212729
2.66828415496
2.65782372459
2.64708241385
2.63606185704
2.62476374515
2.61318982582
2.60134190336
2.58922183875
2.57683154964
2.56417301033
2.55124825179
2.53805936168
2.5246084843
2.51089782063
2.49692962829
2.48270622161
2.46822997155
2.45350330576
2.43852870853
2.42330872083
2.40784594031
2.39214302127
2.37620267467
2.36002766816
2.34362082602
2.32698502923
2.31012321543
2.2930383789
2.27573357062
2.25821189822
2.240476526
2.22253067491
2.20437762259
2.18602070334
2.16746330811
2.14870888454
2.12976093691
2.11062302619
2.09129877001
2.07179184265
2.05210597507
2.03224495491
2.01221262644
1.99201289062
1.97164970509
1.95112708412
1.93044909867
1.90961987637
1.88864360149
1.86752451499
1.8462669145
1.82487515429
1.80335364531
1.78170685519
1.75993930821
1.73805558531
1.71606032412
1.69395821891
1.67175402063
1.64945253689
1.62705863198
1.60457722683
1.58201329907
1.55937188297
1.53665806947
1.51387700619
1.49103389739
1.46813400403
1.44518264371
1.4221851907
1.39914707595
1.37607378706
1.35297086831
1.32984392063
1.30669860162
1.28354062556
1.26037576339
1.23720984271
1.21404874779
1.19089841955
1.16776485561
1.14465411024
1.12157229435
1.09852557556
1.07552017813
1.05256238299
1.02965852774
1.00681500664
0.984038270625
0.961334827285
0.938711240885
0.916174132353
0.893730179282
0.871386115934
0.849148733233
0.827024878773
0.805021456811
0.783145428273
0.761403810748
0.739803678494
0.718352162433
0.697056450153
0.675923785911
0.654961470625
0.634176861884
0.61357737394
0.593170477713
0.572963700788
0.552964627415
0.533180898513
0.513620211665
0.494290321119
0.475199037793
0.456354229267
0.437763819789
0.419435790273
0.401378178299
0.383599078112
0.366106640625
0.348909073416
0.332014640728
0.315431663473
0.299168519226
0.28323364223
0.267635523393
0.25238271029
0.237483807161
0.222947474913
0.208782431119
0.194997450017
0.181601362513
0.168603056177
0.156011475247
0.143835620625
0.132084549881
0.12076737725
0.109893273633
0.0994714665979
0.0895112403781
0.080021935873
0.0710129506483
0.0624937389357
0.054473811633
0.046962736304
0.0399701371787
0.033505695153
0.027579147789
0.022200289315
0.017378970625
0.0131250992794
0.00944863950461
0.006359612193
0.00386809490312
0.00198422185957
0.000718183953
8.02287401605e-05
)
;

boundaryField
{
    left
    {
        type            cyclic;
    }
    right
    {
        type            cyclic;
    }
    frontAndBack
    {
        type            empty;
    }
}


// ************************************************************************* //
