/*--------------------------------*- C++ -*----------------------------------*\
| =========                 |                                                 |
| \\      /  F ield         | OpenFOAM: The Open Source CFD Toolbox           |
|  \\    /   O peration     | Version:  dev                                   |
|   \\  /    A nd           | Web:      www.OpenFOAM.org                      |
|    \\/     M anipulation  |                                                 |
\*---------------------------------------------------------------------------*/
FoamFile
{
    version     2.0;
    format      ascii;
    class       volScalarField;
    location    "0";
    object      moment.2.populationBalance;
}
// * * * * * * * * * * * * * * * * * * * * * * * * * * * * * * * * * * * * * //

dimensions      [0 -1 0 0 0 0 0];

internalField   nonuniform List<scalar> 
500
(
6.3872064e-09
5.72549184e-08
1.58404e-07
3.092249664e-07
5.091107904e-07
7.574569024e-07
1.0536611904e-06
1.397124e-06
1.7872481344e-06
2.2234388544e-06
2.7051038784e-06
3.2316533824e-06
3.8025e-06
4.4170588224e-06
5.0747473984e-06
5.7749857344e-06
6.5171962944e-06
7.300804e-06
8.1252362304e-06
8.9899228224e-06
9.8942960704e-06
1.08377907264e-05
1.1819844e-05
1.28398955584e-05
1.38973875264e-05
1.49917644864e-05
1.61224734784e-05
1.7288964e-05
1.84906880064e-05
1.97270999104e-05
2.09976565824e-05
2.23018173504e-05
2.3639044e-05
2.50088007744e-05
2.64105543744e-05
2.78437739584e-05
2.93079311424e-05
3.08025e-05
3.23269570624e-05
3.38807813184e-05
3.54634542144e-05
3.70744596544e-05
3.8713284e-05
4.03794160704e-05
4.20723471424e-05
4.37915709504e-05
4.55365836864e-05
4.7306884e-05
4.91019729984e-05
5.09213542464e-05
5.27645337664e-05
5.46310200384e-05
5.6520324e-05
5.84319590464e-05
6.03654410304e-05
6.23202882624e-05
6.42960215104e-05
6.6292164e-05
6.83082414144e-05
7.03437818944e-05
7.23983160384e-05
7.44713769024e-05
7.65625e-05
7.86712233024e-05
8.07970872384e-05
8.29396346944e-05
8.50984110144e-05
8.7272964e-05
8.94628439104e-05
9.16676034624e-05
9.38867978304e-05
9.61199846464e-05
9.8366724e-05
0.000100626578438
0.000102899112966
0.000105183895046
0.000107480494598
0.000109788484
0.000112107438086
0.00011443693415
0.000116776551942
0.00011912587367
0.000121484484
0.000123851970054
0.000126227921414
0.000128611930118
0.000131003590662
0.0001334025
0.000135808257542
0.000138220465158
0.000140638727174
0.000143062650374
0.000145491844
0.00014792591975
0.000150364491782
0.00015280717671
0.000155253593606
0.000157703364
0.000160156111878
0.000162611463686
0.000165069048326
0.000167528497158
0.000169989444
0.000172451525126
0.00017491437927
0.000177377647622
0.00017984097383
0.000182304004
0.000184766386694
0.000187227772934
0.000189687816198
0.000192146172422
0.0001946025
0.000197056459782
0.000199507715078
0.000201955931654
0.000204400777734
0.000206841924
0.00020927904359
0.000211711812102
0.00021413990759
0.000216563010566
0.000218980804
0.000221392973318
0.000223799206406
0.000226244583435
0.000228998957472
0.000232101861975
0.000235547231376
0.000239329033632
0.000243441270227
0.00024787797617
0.00025263322
0.000257701103779
0.000263075763098
0.000268751367072
0.000274722118345
0.000280982253086
0.000287526040992
0.000294347785284
0.000301441822712
0.000308802523552
0.000316424291605
0.0003243015642
0.000332428812192
0.000340800539963
0.000349411285421
0.00035825562
0.000367328148662
0.000376623509895
0.000386136375712
0.000395861451655
0.00040579347679
0.000415927223712
0.000426257498541
0.000436779140923
0.000447487024032
0.000458376054568
0.000469441172757
0.000480677352352
0.000492079600632
0.000503642958404
0.0005153625
0.000527233333278
0.000539250599625
0.000551409473952
0.000563705164698
0.000576169025414
0.000588865094506
0.000601800248946
0.000614989125731
0.000628456153688
0.000642236513642
0.000656377429587
0.000670939749213
0.000685999774018
0.000701651301238
0.000718007841879
0.000735204981247
0.000753402850495
0.000772788679809
0.000793579405966
0.000816024308975
0.000840407654481
0.00086705132043
0.000896317388205
0.000928610680063
0.000964381226111
0.00100412664547
0.00104839442739
0.00109778409926
0.00115294926934
0.001214599533
0.00128350223201
0.0013604840571
0.0014464324848
0.00154229704003
0.0016490903766
0.00176788916835
0.00189983480411
0.00204613388032
0.00220805848569
0.00238694627266
0.00258420031143
0.00280128872225
0.003039744083
0.00330116260916
0.00358720310412
0.00389958567848
0.00424009023755
0.00461055473701
0.00501287320717
0.0054489935474
0.00592091509238
0.00643068595302
0.00698040013524
0.00757219444065
0.00820824515363
0.00889076452023
0.00962199702451
0.010404215469
0.011239716866
0.0121308181476
0.0130798517025
0.0140891607475
0.0151610945436
0.0162980034659
0.0175022339363
0.0187761232312
0.0201219941722
0.0215421497129
0.0230388674317
0.0246143939427
0.0262709392355
0.0280106709571
0.0298357086463
0.0317481179343
0.033749904722
0.0358430093484
0.0380293007608
0.0403105706998
0.0426885279118
0.0451647924009
0.0477408897333
0.0504182454054
0.0531981792888
0.0560819001641
0.0590705003549
0.0621649504747
0.0653660942975
0.0686746437644
0.0720911741372
0.0756161193091
0.0792497672855
0.082992255843
0.0868435683787
0.0908035299591
0.0948718035785
0.0990478866357
0.10333110764
0.107720623152
0.112215414971
0.116814287577
0.12151586583
0.126318592939
0.13122072871
0.136220348071
0.141315339884
0.14650340606
0.15178206096
0.157148631109
0.162600255217
0.168133884509
0.173746283376
0.179434030339
0.185193519342
0.191020961363
0.196912386354
0.202863645507
0.208870413849
0.214928193165
0.221032315247
0.227177945474
0.233360086716
0.239573583564
0.245813126882
0.252073258682
0.258348377311
0.264632742959
0.27092048347
0.277205600462
0.283481975749
0.289743378053
0.295983470013
0.302195815466
0.308373887015
0.314511073861
0.320600689894
0.326635982041
0.332610138857
0.338516299347
0.344347562024
0.350096994169
0.355757641308
0.361322536879
0.366784712079
0.372137205892
0.377373075265
0.382485405441
0.38746732042
0.392311993549
0.397012658212
0.401562618615
0.405955260658
0.410184062867
0.414242607374
0.418124590936
0.421823835977
0.425334301626
0.428650094752
0.431765480963
0.434674895567
0.437372954466
0.439854464977
0.442114436557
0.444148091408
0.445950874964
0.447518466218
0.448846787896
0.449932016432
0.450770591759
0.451359226864
0.45169491712
0.451777628031
0.451728668368
0.451614742059
0.451435873335
0.451192100455
0.450883475703
0.450510065393
0.450071949864
0.449569223485
0.44900199465
0.44837038578
0.447674533326
0.446914587763
0.446090713595
0.445203089355
0.4442519076
0.443237374916
0.442159711916
0.44101915324
0.439815947557
0.438550357561
0.437222659975
0.435833145548
0.434382119057
0.432869899306
0.431296819127
0.429663225378
0.427969478946
0.426215954744
0.424403041713
0.42253114282
0.420600675061
0.418612069459
0.416565771064
0.414462238952
0.412301946228
0.410085380024
0.407813041499
0.405485445839
0.403103122259
0.400666613999
0.398176478327
0.395633286539
0.393037623957
0.390390089933
0.387691297844
0.384941875093
0.382142463114
0.379293717366
0.376396307335
0.373450916536
0.370458242509
0.367418996824
0.364333905075
0.361203706887
0.35802915591
0.354811019822
0.351550080327
0.348247133158
0.344902988075
0.341518468865
0.338094413342
0.334631673347
0.33113111475
0.327593617446
0.32402007536
0.320411396441
0.316768502669
0.313092330047
0.30938382861
0.305643962417
0.301873709555
0.298074062139
0.29424602631
0.290390622239
0.28650888412
0.282601860179
0.278670612667
0.27471621786
0.270739766066
0.266742361617
0.262725122874
0.258689182224
0.254635686081
0.250565794889
0.246480683116
0.24238153926
0.238269565844
0.23414597942
0.230012010566
0.225868903888
0.221717918021
0.217560325623
0.213397413384
0.209230482017
0.205060846267
0.200889834902
0.19671879072
0.192549070544
0.188382045227
0.184219099648
0.180061632712
0.175911057354
0.171768800534
0.16763630324
0.163515020489
0.159406421321
0.155311988809
0.151233220049
0.147171626165
0.14312873231
0.139106077662
0.13510521543
0.131127712845
0.12717515117
0.123249125693
0.11935124573
0.115483134623
0.111646429744
0.107842782489
0.104073858284
0.100341336581
0.096646910859
0.0929922886257
0.089379191415
0.0858093547883
0.0822845283342
0.078806475669
0.0753769744358
0.0719978163055
0.0686708069759
0.0653977661722
0.0621805276471
0.0590209391803
0.0559208625791
0.0528821736778
0.0499067623383
0.0469965324495
0.0441534019279
0.041379302717
0.0386761807878
0.0360459961385
0.0334907227948
0.0310123488094
0.0286128762625
0.0262943212615
0.0240587139412
0.0219080984636
0.0198445330181
0.0178700898213
0.0159868551171
0.0141969291769
0.012502426299
0.0109054748094
0.00940821706128
0.00801280943497
0.00672142233825
0.00553624020616
0.00445946150105
0.00349329871254
0.00263997835758
0.00190174098041
0.00128084115256
0.000779547472863
0.000400142567466
0.000144923089801
1.61997206037e-05
)
;

boundaryField
{
    left
    {
        type            cyclic;
    }
    right
    {
        type            cyclic;
    }
    frontAndBack
    {
        type            empty;
    }
}


// ************************************************************************* //
