/*--------------------------------*- C++ -*----------------------------------*\
| =========                 |                                                 |
| \\      /  F ield         | OpenFOAM: The Open Source CFD Toolbox           |
|  \\    /   O peration     | Version:  dev                                   |
|   \\  /    A nd           | Web:      www.OpenFOAM.org                      |
|    \\/     M anipulation  |                                                 |
\*---------------------------------------------------------------------------*/
FoamFile
{
    version     2.0;
    format      ascii;
    class       volScalarField;
    location    "0";
    object      moment.0.populationBalance;
}
// * * * * * * * * * * * * * * * * * * * * * * * * * * * * * * * * * * * * * //

dimensions      [0 -3 0 0 0 0 0];

internalField   nonuniform List<scalar> 
500
(
0
0
0
0
4.4408920985e-16
2.8360647164e-13
2.45355402662e-11
6.47572717671e-10
7.92814058848e-09
5.73846363761e-08
2.8535065294e-07
1.07511301961e-06
3.28052755066e-06
8.4957152206e-06
1.93179151675e-05
3.95510514246e-05
7.43147911577e-05
0.000130046859633
0.000214406293122
0.000336098069185
0.000504644930582
0.000730131974716
0.00102294595547
0.00139352614889
0.00185213838216
0.00240867916278
0.00307251309396
0.00385234397527
0.00475611807107
0.00579095682725
0.00696311566418
0.00827796521705
0.00973999141093
0.0113528109469
0.0131191990666
0.0150411268036
0.0171198052855
0.0193557349986
0.0217487582557
0.0242981134027
0.0270024895683
0.029860080994
0.0328686401832
0.0360255292822
0.039327769252
0.0427720865143
0.0463549568552
0.0500726464564
0.0539212499929
0.0578967257875
0.0619949280628
0.0662116363594
0.0705425822184
0.0749834732468
0.0795300146931
0.0841779286766
0.0889229712121
0.0937609471787
0.0986877233796
0.103699239836
0.108791519459
0.113960676229
0.119202922022
0.124514572195
0.12989205006
0.135331890343
0.140830741744
0.146385368682
0.151992652322
0.157649590965
0.163353299866
0.169101010572
0.174890069817
0.180717938049
0.186582187642
0.192480500827
0.198410667399
0.204370582231
0.210358242639
0.216371745608
0.222409284939
0.228469148308
0.234549714287
0.240649449323
0.246766904712
0.252900713566
0.259049587799
0.265212315129
0.271387756125
0.27757484128
0.283772568149
0.289979998522
0.296196255672
0.302420521651
0.308652034655
0.314890086458
0.321134019906
0.327383226481
0.33363714394
0.339895254006
0.346157080147
0.352422185398
0.358690170268
0.364960670698
0.371233356082
0.377507927354
0.383784115122
0.390061677869
0.396340400196
0.402620091126
0.408900582442
0.415181727086
0.421463397591
0.427745484555
0.434027895149
0.440310551673
0.446593390123
0.452876358806
0.459159416971
0.465442533465
0.471725685413
0.478008856915
0.484292037752
0.490575222119
0.496858407347
0.503141592653
0.509424777881
0.515707962248
0.521991143085
0.528274314587
0.534557466535
0.540840583029
0.547123641194
0.553406609877
0.559689448327
0.565972104851
0.572254515445
0.578536602409
0.584818272914
0.591099417558
0.597379908874
0.603659599804
0.609938322131
0.616215884878
0.622492072646
0.628766643918
0.635039329302
0.641309829732
0.647577814602
0.653842919853
0.660104745994
0.66636285606
0.672616773519
0.678865980094
0.685109913542
0.691347965345
0.697579478349
0.703803744328
0.710020001478
0.716227431851
0.72242515872
0.728612243875
0.734787684871
0.740950412201
0.747099286434
0.753233095288
0.759350550677
0.765450285713
0.771530851692
0.777590715061
0.783628254392
0.789641757361
0.795629417769
0.801589332601
0.807519499173
0.813417812358
0.819282061951
0.825109930183
0.830898989428
0.836646700134
0.842350409035
0.848007347678
0.853614631318
0.859169258256
0.864668109657
0.87010794994
0.875485427805
0.880797077978
0.886039323771
0.891208480541
0.896300760164
0.90131227662
0.906239052821
0.911077028788
0.915822071323
0.920469985307
0.925016526753
0.929457417782
0.933788363641
0.938005071937
0.942103274213
0.946078750007
0.949927353544
0.953645043145
0.957227913486
0.960672230748
0.963974470718
0.967131359817
0.970139919006
0.972997510432
0.975701886597
0.978251241744
0.980644265001
0.982880194715
0.984958873196
0.986880800933
0.988647189053
0.990260008589
0.991722034783
0.993036884336
0.994209043173
0.995243881929
0.996147656025
0.996927486906
0.997591320837
0.998147861618
0.998606473851
0.998977054045
0.999269868025
0.999495355069
0.999663901931
0.999785593707
0.99986995314
0.999925685209
0.999960448949
0.999980682085
0.999991504285
0.999996719472
0.999998924887
0.999999714649
0.999999942615
0.999999992072
0.999999999352
0.999999999975
1
1
1
1
1
1
1
1
1
1
1
1
0.999999999975
0.999999999352
0.999999992072
0.999999942615
0.999999714649
0.999998924887
0.999996719472
0.999991504285
0.999980682085
0.999960448949
0.999925685209
0.99986995314
0.999785593707
0.999663901931
0.999495355069
0.999269868025
0.998977054045
0.998606473851
0.998147861618
0.997591320837
0.996927486906
0.996147656025
0.995243881929
0.994209043173
0.993036884336
0.991722034783
0.990260008589
0.988647189053
0.986880800933
0.984958873196
0.982880194715
0.980644265001
0.978251241744
0.975701886597
0.972997510432
0.970139919006
0.967131359817
0.963974470718
0.960672230748
0.957227913486
0.953645043145
0.949927353544
0.946078750007
0.942103274213
0.938005071937
0.933788363641
0.929457417782
0.925016526753
0.920469985307
0.915822071323
0.911077028788
0.906239052821
0.90131227662
0.896300760164
0.891208480541
0.886039323771
0.880797077978
0.875485427805
0.87010794994
0.864668109657
0.859169258256
0.853614631318
0.848007347678
0.842350409035
0.836646700134
0.830898989428
0.825109930183
0.819282061951
0.813417812358
0.807519499173
0.801589332601
0.795629417769
0.789641757361
0.783628254392
0.777590715061
0.771530851692
0.765450285713
0.759350550677
0.753233095288
0.747099286434
0.740950412201
0.734787684871
0.728612243875
0.72242515872
0.716227431851
0.710020001478
0.703803744328
0.697579478349
0.691347965345
0.685109913542
0.678865980094
0.672616773519
0.66636285606
0.660104745994
0.653842919853
0.647577814602
0.641309829732
0.635039329302
0.628766643918
0.622492072646
0.616215884878
0.609938322131
0.603659599804
0.597379908874
0.591099417558
0.584818272914
0.578536602409
0.572254515445
0.565972104851
0.559689448327
0.553406609877
0.547123641194
0.540840583029
0.534557466535
0.528274314587
0.521991143085
0.515707962248
0.509424777881
0.503141592653
0.496858407347
0.490575222119
0.484292037752
0.478008856915
0.471725685413
0.465442533465
0.459159416971
0.452876358806
0.446593390123
0.440310551673
0.434027895149
0.427745484555
0.421463397591
0.415181727086
0.408900582442
0.402620091126
0.396340400196
0.390061677869
0.383784115122
0.377507927354
0.371233356082
0.364960670698
0.358690170268
0.352422185398
0.346157080147
0.339895254006
0.33363714394
0.327383226481
0.321134019906
0.314890086458
0.308652034655
0.302420521651
0.296196255672
0.289979998522
0.283772568149
0.27757484128
0.271387756125
0.265212315129
0.259049587799
0.252900713566
0.246766904712
0.240649449323
0.234549714287
0.228469148308
0.222409284939
0.216371745608
0.210358242639
0.204370582231
0.198410667399
0.192480500827
0.186582187642
0.180717938049
0.174890069817
0.169101010572
0.163353299866
0.157649590965
0.151992652322
0.146385368682
0.140830741744
0.135331890343
0.12989205006
0.124514572195
0.119202922022
0.113960676229
0.108791519459
0.103699239836
0.0986877233796
0.0937609471787
0.0889229712121
0.0841779286766
0.0795300146931
0.0749834732468
0.0705425822184
0.0662116363594
0.0619949280628
0.0578967257875
0.0539212499929
0.0500726464564
0.0463549568552
0.0427720865143
0.039327769252
0.0360255292822
0.0328686401832
0.029860080994
0.0270024895683
0.0242981134027
0.0217487582557
0.0193557349986
0.0171198052855
0.0150411268036
0.0131191990666
0.0113528109469
0.00973999141093
0.00827796521705
0.00696311566418
0.00579095682725
0.00475611807107
0.00385234397527
0.00307251309396
0.00240867916278
0.00185213838216
0.00139352614889
0.00102294595547
0.000730131974716
0.000504644930582
0.000336098069185
0.000214406293122
0.000130046859633
7.43147911577e-05
3.95510514246e-05
1.93179151675e-05
8.4957152206e-06
3.28052755066e-06
1.07511301961e-06
2.8535065294e-07
5.73846363761e-08
7.92814058848e-09
6.47572717671e-10
2.45355402662e-11
2.8360647164e-13
4.4408920985e-16
0
0
0
0
)
;

boundaryField
{
    left
    {
        type            cyclic;
    }
    right
    {
        type            cyclic;
    }
    frontAndBack
    {
        type            empty;
    }
}


// ************************************************************************* //
