/*--------------------------------*- C++ -*----------------------------------*\
| =========                 |                                                 |
| \\      /  F ield         | OpenFOAM: The Open Source CFD Toolbox           |
|  \\    /   O peration     | Version:  v2112                                 |
|   \\  /    A nd           | Website:  www.openfoam.com                      |
|    \\/     M anipulation  |                                                 |
\*---------------------------------------------------------------------------*/
FoamFile
{
    version     2.0;
    format      ascii;
    class       volScalarField;
    location    "0";
    object      moment.4.populationBalance;
}
// * * * * * * * * * * * * * * * * * * * * * * * * * * * * * * * * * * * * * //

dimensions      [0 1 0 0 0 0 0];

internalField   nonuniform List<scalar> 
500
(
0
0
0
0
1.11937542558e-16
7.17714279198e-14
6.23286181278e-12
1.6510636153e-10
2.02841785181e-09
1.47305998653e-08
7.34802744687e-08
2.77678336175e-07
8.49682995444e-07
2.20631968934e-06
5.02937972043e-06
1.03211677086e-05
1.94354314679e-05
3.40799507392e-05
5.62923498192e-05
8.83942032282e-05
0.000132930098672
0.000192598421626
0.000270179794339
0.000368467834849
0.000490205549454
0.00063802944162
0.000814422407558
0.00102167571737
0.00126185983346
0.00153680345922
0.00184808000039
0.00219700052042
0.00258461224753
0.00301170171917
0.00347880170968
0.00398620116466
0.00453395745156
0.0051219103232
0.00574969707474
0.00641676845364
0.00712240495345
0.00786573318688
0.00864574209009
0.00946129875996
0.0103111637688
0.0111940058382
0.012108415784
0.0130529196725
0.0140259911482
0.0150260629125
0.0160515373486
0.0171007962986
0.0181722100091
0.0192641452693
0.0203749727718
0.0215030737302
0.0226468457898
0.0238047082723
0.0249751067932
0.0261565172939
0.0273474495291
0.0285464500482
0.0297521047118
0.0309630407791
0.0321779286036
0.0333954829714
0.0346144641141
0.0358336784284
0.0370519789311
0.038268265476
0.0394814847592
0.0406906301353
0.0418947412675
0.0430929036304
0.0442842478856
0.0454679491454
0.0466432261419
0.0478093403138
0.0489655948262
0.0501113335324
0.0512459398905
0.0523688358434
0.0534794806704
0.0545773698192
0.0556620337238
0.056733036616
0.057789975334
0.0588324781347
0.0598602035127
0.06087283903
0.0618701001601
0.0628517291475
0.0638174938879
0.0647671868275
0.0657006238867
0.0666176434058
0.0675181051177
0.0684018891448
0.0692688950234
0.0701190407553
0.0709522618855
0.0717685106087
0.0725677549027
0.0733499776889
0.0741151760205
0.0748633602975
0.0755945535081
0.0763087904961
0.0770061172547
0.0776865902446
0.078350275737
0.078997249181
0.0796275945938
0.0802414039738
0.0808387767362
0.0814198191695
0.081984643913
0.0825333694544
0.0830661196468
0.0835830232441
0.0840842134551
0.0845698275143
0.0850400062699
0.0854948937874
0.0859346369691
0.0863593851882
0.0867692899366
0.0871645044873
0.0875451835684
0.0879114830509
0.0882635596471
0.0886015706209
0.0889256735087
0.0892360258505
0.0895327849307
0.0898161075282
0.0900861496747
0.0903430664224
0.0905870116184
0.0908181376872
0.0910365954203
0.0912425337719
0.0914360996617
0.0916174377827
0.091786690416
0.0919439972494
0.0920894952026
0.0922233182557
0.0923455972842
0.0924564598965
0.0925560302768
0.0926444290323
0.0927217730435
0.0927881753189
0.0928437448543
0.0928885864946
0.0929228008007
0.0929464839201
0.0929597274614
0.0929626183737
0.09295523883
0.0929376661159
0.0929099725233
0.0928722252503
0.0928244863065
0.092766812426
0.0926992549868
0.0926218599395
0.0925346677444
0.0924377133188
0.0923310259955
0.0922146294938
0.092088541904
0.091952775687
0.0918073376909
0.0916522291862
0.0914874459216
0.0913129782021
0.0911288109926
0.0909349240491
0.0907312920794
0.0905178849377
0.0902946678557
0.0900616017127
0.0898186433493
0.0895657459289
0.0893028593493
0.0890299307108
0.0887469048434
0.0884537248999
0.0881503330169
0.0878366710519
0.0875126813989
0.0871783078898
0.0868334967852
0.0864781978602
0.0861123655913
0.085735960447
0.085348950288
0.0849513118803
0.0845430325235
0.0841241117977
0.083694563428
0.0832544172675
0.082803721395
0.0823425443224
0.0818709773055
0.0813891367445
0.0808971666612
0.0803952412324
0.0798835673531
0.0793623871987
0.0788319807463
0.078292668206
0.0777448123054
0.0771888203562
0.076625146022
0.0760542906902
0.0754768043379
0.0748932857646
0.0743043820487
0.073710787072
0.0731132389425
0.0725125161382
0.0719094321987
0.0713048288022
0.0706995670988
0.0700945172303
0.0694905460549
0.0688885032331
0.0682892060084
0.0676934232533
0.067101859621
0.0665151409378
0.0659338022228
0.0653582798614
0.0647889093622
0.0642259296759
0.063669494166
0.0631196870514
0.0625765427712
0.0620400648271
0.0615102408594
0.0609870522486
0.0604704787167
0.0599604998603
0.0594570954752
0.0589602456067
0.0584699305682
0.0579861309596
0.0575088276842
0.0570380019671
0.056573635373
0.0561157098243
0.0556642076194
0.0552191114509
0.0547804044233
0.0543480700425
0.053922091971
0.0535024527745
0.053089130215
0.0526820897734
0.0522812734656
0.0518865867723
0.0514978865067
0.0511149722451
0.0507375829188
0.050365398913
0.0499980490024
0.0496351208621
0.0492761737001
0.0489207516562
0.0485683968645
0.0482186613873
0.0478711175236
0.0475253662463
0.047181043712
0.0468378259209
0.0464954316906
0.0461536241512
0.0458122109902
0.0454710436735
0.0451300158543
0.0447890611654
0.0444481505613
0.0441072893579
0.0437665140887
0.0434258892803
0.0430855042237
0.0427454698078
0.042405915461
0.0420669862373
0.041728840072
0.041391645224
0.0410555779139
0.0407208201608
0.0403875578201
0.0400559788147
0.0397262715563
0.0393986235461
0.0390732201465
0.0387502435126
0.0384298716715
0.0381122777404
0.0377976292689
0.0374860876974
0.0371778079189
0.0368729379345
0.0365716185931
0.0362739834051
0.0359801584228
0.0356902621781
0.0354044056711
0.0351226924018
0.03484521844
0.0345720725257
0.0343033361969
0.0340390839386
0.0337793833495
0.033524295322
0.0332738742334
0.0330281681432
0.032787218996
0.0325510628262
0.032319729963
0.0320932452335
0.031871628163
0.0316548931708
0.0314430497596
0.0312361026985
0.0310340521991
0.030836894082
0.0306446199354
0.0304572172643
0.0302746696292
0.0300969567755
0.0299240547524
0.0297559360214
0.0295925695541
0.0294339209196
0.0292799523611
0.0291306228624
0.0289858882029
0.0288457010034
0.0287100107608
0.0285787638724
0.0284519036512
0.0283293703299
0.0282111010566
0.0280970298801
0.0279870877263
0.0278812023655
0.0277792983709
0.0276812970683
0.0275871164782
0.0274966712493
0.0274098725843
0.0273266281589
0.027246842033
0.0271704145559
0.027097242265
0.0270272177782
0.0269602296813
0.0268961624103
0.0268348961289
0.0267763066022
0.0267202650668
0.0266666380983
0.0266152874758
0.0265660700454
0.0265188375827
0.0264734366549
0.0264297084836
0.0263874888091
0.0263466077573
0.0263068897093
0.0262681531761
0.0262302106781
0.0261928686317
0.0261559272431
0.0261191804119
0.0260824156443
0.0260454139782
0.0260079499225
0.0259697914098
0.025930699767
0.0258904297026
0.0258487293155
0.025805340124
0.0257599971202
0.0257124288482
0.0256623575122
0.0256094991126
0.0255535636152
0.0254942551549
0.0254312722758
0.0253643082097
0.0252930511977
0.0252171848539
0.0251363885771
0.0250503380102
0.0249587055515
0.0248611609207
0.0247573717797
0.0246470044142
0.0245297244751
0.0244051977848
0.0242730912089
0.0241330735967
0.023984816791
0.0238279967113
0.0236622945106
0.0234873978068
0.0233030019925
0.0231088116208
0.0229045418712
0.0226899200927
0.0224646874263
0.0222286005059
0.021981433235
0.0217229786395
0.0214530507928
0.0211714868113
0.0208781489148
0.0205729265488
0.0202557385621
0.0199265354319
0.0195853015308
0.019232057424
0.0188668621874
0.0184898157341
0.0181010611348
0.0177007869179
0.0172892293302
0.0168666745396
0.0164334607577
0.0159899802581
0.015536681264
0.0150740696757
0.0146027106061
0.0141232296896
0.013636314126
0.0131427134197
0.0126432397691
0.0121387680601
0.0116302354137
0.0111186402344
0.0106050407048
0.0100905526668
0.00957634683165
0.00906364525562
0.00855371701991
0.00804787305304
0.00754746003464
0.0070538533232
0.00656844885421
0.0060926539622
0.00562787708932
0.0051755163554
0.00473694698049
0.00431350757126
0.00390648530814
0.00351710010115
0.0031464878208
0.00279568275598
0.00246559950526
0.00215701457195
0.00187054800713
0.0016066455295
0.00136556164528
0.00114734439508
0.000951822463913
0.000778595501526
0.000627028603845
0.000496251991426
0.000385166968873
0.000292459236569
0.000216620520167
0.000155979244533
0.000108740561487
7.30353990606e-05
4.69772999396e-05
2.87246562205e-05
1.65445870882e-05
8.87330947792e-06
4.36672655495e-06
1.93457283375e-06
7.52383957027e-07
2.48303041503e-07
6.63529685974e-08
1.3432359561e-08
1.86777680601e-09
1.53518631686e-10
5.852066293e-12
6.8044525278e-14
1.0716015488e-16
0
0
0
0
)
;

boundaryField
{
    left
    {
        type            cyclic;
    }
    right
    {
        type            cyclic;
    }
    frontAndBack
    {
        type            empty;
    }
}


// ************************************************************************* //
