/*--------------------------------*- C++ -*----------------------------------*\
| =========                 |                                                 |
| \\      /  F ield         | OpenFOAM: The Open Source CFD Toolbox           |
|  \\    /   O peration     | Version:  v2112                                 |
|   \\  /    A nd           | Website:  www.openfoam.com                      |
|    \\/     M anipulation  |                                                 |
\*---------------------------------------------------------------------------*/
FoamFile
{
    version     2.0;
    format      ascii;
    class       volScalarField;
    location    "0";
    object      moment.2.populationBalance;
}
// * * * * * * * * * * * * * * * * * * * * * * * * * * * * * * * * * * * * * //

dimensions      [0 -1 0 0 0 0 0];

internalField   nonuniform List<scalar> 
500
(
0
0
0
0
1.98316665307e-16
1.26995627554e-13
1.10155814365e-11
2.91470994077e-10
3.57708517108e-09
2.59514226223e-08
1.29332832135e-07
4.88321147534e-07
1.49304894142e-06
3.87406617089e-06
8.82515238396e-06
1.80997822399e-05
3.40645596537e-05
5.97033623197e-05
9.85751432691e-05
0.000154734374947
0.000232625811382
0.000336965333963
0.000472617133323
0.00064447523286
0.000857354987641
0.00111589805083
0.00142449254977
0.00178720889102
0.00220775068463
0.00268941967654
0.00323509323313
0.00384721276443
0.00452778144745
0.00527836967147
0.00610012674118
0.00699379751546
0.00795974281345
0.00899796257305
0.0101081208947
0.0112895722392
0.0125413881723
0.0138623841575
0.0152511459968
0.0167060556005
0.0182253158412
0.0198069743058
0.0214489458138
0.0231490336108
0.024904949183
0.0267143306687
0.028574759865
0.0304837778477
0.0324388992385
0.034437625164
0.0364774549592
0.0385558966772
0.0406704764676
0.0428187468915
0.0449982942402
0.0472067449269
0.0494417710176
0.0517010949675
0.053982493627
0.0562838015775
0.0586029138575
0.0609377881319
0.06328644636
0.065646976009
0.0680175308605
0.0703963314525
0.0727816651973
0.0751718862119
0.0775654148948
0.079960737281
0.0823564042038
0.0847510302894
0.0871432928078
0.0895319304036
0.0919157417231
0.0942935839591
0.0966643713267
0.099027073485
0.101380713919
0.103724368291
0.106057162773
0.108378272369
0.110686919233
0.112982370996
0.115263939099
0.117530977141
0.119782879253
0.122019078489
0.124239045251
0.12644228574
0.128628340436
0.130796782621
0.132947216929
0.135079277939
0.137192628797
0.139286959883
0.141361987517
0.143417452693
0.145453119861
0.147468775742
0.149464228181
0.151439305037
0.153393853106
0.155327737081
0.15724083855
0.159133055018
0.161004298972
0.162854496968
0.164683588757
0.166491526431
0.168278273606
0.170043804625
0.171788103794
0.173511164634
0.175212989167
0.176893587215
0.17855297573
0.180191178135
0.181808223694
0.183404146891
0.184978986837
0.18653278668
0.188065593046
0.189577455482
0.191068425914
0.192538558128
0.193987907248
0.195416529232
0.196824480383
0.198211816854
0.199578594178
0.200924866793
0.202250687579
0.203556107396
0.204841174638
0.206105934774
0.207350429909
0.208574698336
0.2097787741
0.210962686554
0.212126459922
0.213270112864
0.214393658034
0.215497101647
0.216580443037
0.217643674221
0.218686779455
0.219709734794
0.220712507651
0.221695056347
0.222657329671
0.223599266428
0.224520794994
0.225421832865
0.226302286209
0.227162049419
0.228001004667
0.228819021458
0.229615956189
0.230391651718
0.231145936934
0.231878626334
0.232589519619
0.233278401298
0.233945040304
0.234589189641
0.235210586042
0.235808949659
0.236383983784
0.236935374609
0.237462791018
0.237965884437
0.238444288733
0.238897620174
0.239325477458
0.239727441825
0.240103077247
0.240451930723
0.240773532681
0.2410673975
0.241333024161
0.241569897056
0.241777486948
0.241955252115
0.24210263969
0.242219087207
0.242304024384
0.242356875152
0.242377059964
0.242363998378
0.242317111973
0.242235827586
0.24211958091
0.241967820466
0.241780011982
0.241555643174
0.241294228979
0.24099531722
0.240658494748
0.240283394042
0.239869700277
0.239417158868
0.238925583447
0.238394864278
0.237824977049
0.237215992002
0.236568083325
0.235881538706
0.235156768941
0.234394317438
0.23359486944
0.232759260739
0.231888485615
0.230983703687
0.230046245303
0.229077615032
0.228079492786
0.227053732014
0.22600235437
0.224927540236
0.223831614437
0.222717026549
0.221586325264
0.220442126454
0.219287074877
0.218123799859
0.216954865926
0.215782720078
0.214609638382
0.213437675518
0.212268621857
0.211103973211
0.209944918197
0.208792346826
0.207646881099
0.20650892422
0.205378720472
0.204256414607
0.203142099978
0.202035849484
0.200937730491
0.199847809814
0.198766154742
0.19769283317
0.196627913625
0.19557146529
0.194523558019
0.193484262366
0.192453649602
0.191431791739
0.190418761554
0.189414632608
0.188419479265
0.187433376618
0.186456399592
0.185488618551
0.184530086289
0.183580811704
0.182640720128
0.181709606493
0.180787091165
0.179872587757
0.178965288821
0.178064170941
0.177168017197
0.176275452775
0.175384988743
0.17449506924
0.173604118165
0.172710582444
0.171812970033
0.170909881629
0.17000003578
0.169082287541
0.168155641164
0.167219257477
0.1662724567
0.165314717449
0.164345672672
0.163365103161
0.162372929257
0.16136920125
0.160354088921
0.15932787059
0.158290921965
0.157243705042
0.156186757242
0.155120680915
0.154046133352
0.152963817343
0.151874472358
0.150778866373
0.149677788343
0.148572041342
0.147462436334
0.146349786573
0.1452349026
0.144118587808
0.143001634531
0.141884820648
0.140768906637
0.139654633062
0.138542718454
0.137433857546
0.136328719837
0.135227948449
0.134132159245
0.133041940188
0.131957850904
0.130880422432
0.12981015714
0.128747528778
0.127692982654
0.126646935918
0.125609777935
0.124581870728
0.123563549487
0.122555123129
0.121556874895
0.120569062979
0.119591921179
0.11862565956
0.117670465131
0.11672650252
0.115793914647
0.114872823393
0.113963330258
0.113065517003
0.11217944628
0.111305162242
0.110442691132
0.109592041854
0.108753206517
0.107926160959
0.107110865248
0.106307264153
0.105515287598
0.104734851085
0.103965856097
0.103208190475
0.102461728773
0.101726332586
0.101001850858
0.100288120173
0.099584965013
0.098892198008
0.0982096201585
0.0975370210432
0.0968741790081
0.0962208613394
0.0955768244208
0.0949418138768
0.0943155647022
0.0936978013809
0.0930882379923
0.0924865783094
0.0918925158887
0.0913057341519
0.090725906464
0.0901526962051
0.0895857568415
0.0890247319937
0.0884692555059
0.0879189515162
0.0873734345311
0.0868323095038
0.0862951719201
0.0857616078913
0.0852311942585
0.0847034987071
0.0841780798961
0.083654487602
0.0831322628806
0.0826109382473
0.0820900378794
0.0815690778413
0.0810475663353
0.0805250039796
0.0800008841163
0.0794746931511
0.0789459109273
0.0784140111359
0.0778784617648
0.0773387255889
0.0767942607037
0.0762445211049
0.0756889573156
0.0751270170653
0.0745581460212
0.0739817885754
0.0733973886898
0.0728043908018
0.0722022407925
0.0715903870203
0.0709682814216
0.0703353806815
0.0696911474761
0.0690350517892
0.0683665723043
0.0676851978751
0.0669904290749
0.0662817798277
0.0655587791212
0.0648209728037
0.0640679254656
0.0632992224061
0.0625144716848
0.0617133062596
0.0608953862092
0.0600604010398
0.0592080720747
0.0583381549246
0.0574504420368
0.0565447653192
0.0556209988355
0.054679061567
0.0537189202356
0.0527405921799
0.0517441482783
0.0507297159091
0.0496974819365
0.0486476957127
0.0475806720796
0.0464967943579
0.0453965173036
0.0442803700144
0.0431489587635
0.0420029697367
0.0408431716468
0.0396704181943
0.038485650343
0.0372898983744
0.0360842836803
0.0348700202521
0.0336484158191
0.032420872585
0.0311888875076
0.029954052062
0.0287180514247
0.0274826630092
0.026249754282
0.0250212797824
0.0237992772649
0.0225858628824
0.0213832253219
0.0201936188055
0.019019354866
0.0178627928082
0.0167263287684
0.0156123832879
0.014523387324
0.0134617666301
0.0124299244505
0.0114302224934
0.0104649601675
0.00953635209798
0.00864650397304
0.00779738681919
0.00699080985617
0.00622839215141
0.00551153337164
0.00484138402437
0.00421881569051
0.00364439187671
0.00311834025811
0.0026405272425
0.0022104359588
0.00182714895426
0.00148933706436
0.00119525608383
0.00094275299372
0.00072928355675
0.000551943038299
0.000407511586056
0.000292515338952
0.000203303556353
0.000136140884959
8.7312259322e-05
5.32358677059e-05
3.05772279488e-05
1.63550125689e-05
8.02739709341e-06
3.54721709394e-06
1.37612089454e-06
4.53047692538e-07
1.20780686171e-07
2.43946788012e-08
3.3845724433e-09
2.77591592658e-10
1.05596890752e-11
1.22535519635e-13
1.92601307604e-16
0
0
0
0
)
;

boundaryField
{
    left
    {
        type            cyclic;
    }
    right
    {
        type            cyclic;
    }
    frontAndBack
    {
        type            empty;
    }
}


// ************************************************************************* //
