/*--------------------------------*- C++ -*----------------------------------*\
| =========                 |                                                 |
| \\      /  F ield         | OpenFOAM: The Open Source CFD Toolbox           |
|  \\    /   O peration     | Version:  v2112                                 |
|   \\  /    A nd           | Website:  www.openfoam.com                      |
|    \\/     M anipulation  |                                                 |
\*---------------------------------------------------------------------------*/
FoamFile
{
    version     2.0;
    format      ascii;
    class       volScalarField;
    location    "0";
    object      moment.3.populationBalance;
}
// * * * * * * * * * * * * * * * * * * * * * * * * * * * * * * * * * * * * * //

dimensions      [0 0 0 0 0 0 0];

internalField   nonuniform List<scalar> 
500
(
0
0
0
0
1.45977183939e-16
9.35474445625e-14
8.11993015889e-12
2.14993989844e-10
2.64016367923e-09
1.91654008923e-08
9.55664282262e-08
3.61016194055e-07
1.10434464379e-06
2.86676439181e-06
6.53320986381e-06
1.34042439661e-05
2.52360618716e-05
4.42438369256e-05
7.30704975032e-05
0.000114727540018
0.000172516521454
0.000249939979026
0.000350609429006
0.000478156444957
0.000636151060898
0.000828030153335
0.00105703715006
0.00132617342201
0.00163816101395
0.00199541591308
0.0024000307888
0.00285376601219
0.0033580477379
0.00391397187127
0.00452231282394
0.00518353606396
0.00589781357863
0.00666504148181
0.00748485910633
0.00835666902345
0.00927965752379
0.0102528151763
0.0112749571547
0.0123447430835
0.0134606962116
0.0146212217655
0.0158246243765
0.0170691245087
0.0183528738395
0.019673969572
0.0210304676736
0.022420395051
0.0238417606852
0.0252925657571
0.026770812804
0.0282745139497
0.0298016982568
0.0313504182514
0.0329187556708
0.0345048264861
0.0361067852518
0.0377228288308
0.0393511995458
0.040990187803
0.0426381342337
0.0442934313962
0.0459545250805
0.0476199152514
0.049288156669
0.0509578592177
0.0526276879768
0.0542963630604
0.0559626592549
0.0576254054771
0.0592834840772
0.0609358300063
0.0625814298684
0.0642193208733
0.0658485897065
0.0674683713309
0.069077847732
0.0706762466185
0.0722628400896
0.0738369432769
0.0753979129701
0.0769451462332
0.078478079018
0.0799961847809
0.081498973107
0.0829859883467
0.0844568082687
0.0859110427313
0.0873483323769
0.0887683473491
0.0901707860379
0.0915553738508
0.0929218620143
0.0942700264044
0.0955996664082
0.0969106038168
0.0982026817493
0.0994757636087
0.100729732069
0.101964488095
0.10317994999
0.104376052479
0.105552745819
0.106709994939
0.107847778611
0.108966088648
0.11006492913
0.111144315657
0.112204274634
0.113244842565
0.114266065397
0.115267997862
0.116250702862
0.117214250863
0.11815871932
0.119084192116
0.119990759022
0.120878515181
0.121747560603
0.122597999681
0.123429940724
0.124243495505
0.125038778824
0.125815908085
0.126575002887
0.127316184628
0.128039576121
0.128745301221
0.129433484464
0.130104250716
0.130757724829
0.131394031311
0.132013294
0.132615635746
0.133201178107
0.13377004104
0.13432234261
0.134858198697
0.135377722713
0.135881025321
0.136368214162
0.136839393581
0.137294664365
0.137734123474
0.138157863787
0.138565973844
0.138958537589
0.139335634126
0.139697337464
0.14004371628
0.140374833672
0.14069074692
0.140991507252
0.141277159612
0.141547742427
0.141803287385
0.142043819213
0.142269355462
0.142479906296
0.142675474288
0.142856054223
0.143021632912
0.143172189014
0.143307692863
0.14342810632
0.143533382628
0.14362346629
0.143698292958
0.143757789354
0.143801873203
0.143830453197
0.143843428991
0.143840691228
0.143822121599
0.143787592951
0.143736969435
0.143670106706
0.143586852175
0.143487045331
0.143370518122
0.143237095412
0.143086595526
0.142918830875
0.142733608679
0.142530731801
0.142309999692
0.142071209451
0.141814157032
0.141538638582
0.141244451936
0.140931398273
0.140599283945
0.140247922492
0.139877136838
0.139486761705
0.13907664622
0.138646656749
0.138196679948
0.13772662604
0.137236432317
0.136726066869
0.136195532528
0.135644871015
0.135074167281
0.134483554015
0.133873216277
0.133243396229
0.132594397903
0.131926591938
0.131240420205
0.130536400219
0.129815129224
0.129077287793
0.128323642789
0.127555049485
0.126772452608
0.12597688608
0.125169471137
0.124351412553
0.123523992625
0.122688562612
0.121846531315
0.120999350548
0.120148497359
0.119295452987
0.118441678808
0.117588589801
0.116737526514
0.115889726964
0.115046300443
0.114208205658
0.113376235912
0.112551013874
0.111732997761
0.110922499182
0.110119710722
0.109324738888
0.108537636437
0.107758428394
0.106987128688
0.10622374815
0.105468297168
0.104720786255
0.103981226113
0.103249627667
0.102526002078
0.101810360765
0.101102715426
0.100403078058
0.0997114609787
0.0990278768469
0.0983523386834
0.0976848598911
0.0970254542254
0.0963741353427
0.0957309145455
0.0950957941128
0.0944687538304
0.0938497307815
0.0932385956299
0.0926351304539
0.0920390128844
0.0914498094775
0.0908669790169
0.0902898846054
0.0897178123228
0.0891499938561
0.0885856306659
0.0880239176901
0.0874640651339
0.0869053174241
0.0863469688526
0.0857883757809
0.0852289655212
0.0846682421673
0.0841057897351
0.083541273011
0.0829744365094
0.0824051019167
0.0818331643695
0.0812585878725
0.080681400117
0.0801016869254
0.0795195865019
0.0789352836397
0.0783490040023
0.07776100857
0.0771715883203
0.0765810591917
0.0759897573651
0.0753980348836
0.0748062556204
0.0742147915985
0.0736240196562
0.0730343184499
0.0724460657809
0.0718596362304
0.0712753990841
0.0706937165295
0.0701149421044
0.0695394193781
0.0689674808455
0.0683994470157
0.0678356256763
0.067276311316
0.066721784689
0.0661723125066
0.0656281472393
0.0650895270183
0.0645566756224
0.0640298025393
0.0635091030908
0.0629947586118
0.0624869366761
0.0619857913579
0.0614914635258
0.0610040811596
0.0605237596864
0.0600506023295
0.0595847004669
0.0591261339942
0.0586749716893
0.0582312715752
0.0577950812793
0.0573664383852
0.0569453707767
0.0565318969719
0.0561260264448
0.0557277599355
0.0553370897455
0.0549540000194
0.0545784670113
0.0542104593357
0.0538499382026
0.0534968576365
0.0531511646795
0.0528127995778
0.0524816959526
0.0521577809544
0.0518409754022
0.0515311939064
0.0512283449774
0.0509323311177
0.0506430489013
0.0503603890372
0.0500842364204
0.0498144701687
0.0495509636475
0.0492935844817
0.0490421945557
0.0487966500029
0.0485568011844
0.0483224926566
0.0480935631314
0.0478698454257
0.0476511664043
0.0474373469147
0.0472282017156
0.0470235393998
0.0468231623113
0.0466268664598
0.0464344414302
0.0462456702909
0.0460603295005
0.0458781888137
0.0456990111888
0.0455225526956
0.045348562428
0.045176782419
0.0450069475624
0.0448387855404
0.0446720167597
0.044506354297
0.0443415038553
0.0441771637332
0.0440130248079
0.043848770534
0.0436840769605
0.0435186127668
0.0433520393195
0.0431840107533
0.0430141740767
0.0428421693049
0.0426676296219
0.0424901815751
0.0423094453029
0.0421250347985
0.0419365582129
0.041743618198
0.0415458122939
0.041342733361
0.0411339700615
0.0409191073911
0.0406977272644
0.0404694091565
0.0402337308023
0.0399902689578
0.0397386002247
0.0394783019405
0.0392089531374
0.0389301355724
0.0386414348288
0.0383424414949
0.0380327524174
0.0377119720354
0.0373797137936
0.0370356016379
0.0366792715934
0.0363103734263
0.0359285723899
0.0355335510549
0.0351250112231
0.0347026759251
0.0342662914988
0.0338156297485
0.0333504901804
0.0328707023131
0.0323761280563
0.0318666641555
0.0313422446947
0.0308028436502
0.0302484774886
0.0296792077971
0.0290951439369
0.0284964457062
0.0278833259988
0.0272560534418
0.0266149549941
0.0259604184867
0.0252928950805
0.0246129016171
0.0239210228356
0.0232179134241
0.0225042998726
0.0217809820905
0.0210488347497
0.0203088083082
0.0195619296702
0.0188093024288
0.0180521066408
0.0172915980736
0.0165291068644
0.0157660355269
0.0150038562378
0.0142441073341
0.0134883889478
0.0127383577053
0.0119957204171
0.0112622266848
0.010539660355
0.00982982975215
0.00913455663138
0.00845566379914
0.00779496136359
0.0071542315922
0.00653521237569
0.00593957932402
0.00536892655324
0.00482474626287
0.00430840725289
0.00382113258825
0.00336397668939
0.00293780220876
0.00254325714878
0.00218075278412
0.00185044307206
0.00155220636603
0.00128563038575
0.00105000153658
0.000844299799568
0.000667200516571
0.000517084448572
0.000392057458206
0.000289981017632
0.000208514418798
0.000145169006103
9.73739029897e-05
6.25515219353e-05
3.81996314926e-05
2.19749876992e-05
1.17717383296e-05
5.78638243914e-06
2.5606268837e-06
9.94774720202e-07
3.27948139109e-07
8.754580186e-08
1.77048814185e-08
2.45949157226e-09
2.0196447475e-10
7.69184512709e-12
8.93584709421e-14
1.40608294061e-16
0
0
0
0
)
;

boundaryField
{
    left
    {
        type            cyclic;
    }
    right
    {
        type            cyclic;
    }
    frontAndBack
    {
        type            empty;
    }
}


// ************************************************************************* //
