/*--------------------------------*- C++ -*----------------------------------*\
| =========                 |                                                 |
| \\      /  F ield         | OpenFOAM: The Open Source CFD Toolbox           |
|  \\    /   O peration     | Version:  v2112                                 |
|   \\  /    A nd           | Website:  www.openfoam.com                      |
|    \\/     M anipulation  |                                                 |
\*---------------------------------------------------------------------------*/
FoamFile
{
    version     2.0;
    format      ascii;
    class       volScalarField;
    location    "0";
    object      moment.1.populationBalance;
}
// * * * * * * * * * * * * * * * * * * * * * * * * * * * * * * * * * * * * * //

dimensions      [0 -2 0 0 0 0 0];

internalField   nonuniform List<scalar> 
500
(
0
0
0
0
2.84931294557e-16
1.82266851719e-13
1.5793688107e-11
4.17491647269e-10
5.11890460553e-09
3.71042022828e-08
1.84758161129e-07
6.97030694189e-07
2.12956265783e-06
5.52168679866e-06
1.25699489545e-05
2.57637626316e-05
4.84597632434e-05
8.48863101568e-05
0.000140082628833
0.000219785566086
0.000330280632867
0.000478234027152
0.00067052009836
0.000914055473294
0.00121564767391
0.00158186301667
0.00201891611382
0.00253258144281
0.00312812615784
0.00381026249214
0.00458311763422
0.00545021876098
0.00641449089203
0.0074782653314
0.00864329663459
0.00991078624926
0.0112814112012
0.0127553564187
0.0143323495001
0.0160116969206
0.0177923208518
0.0196727959198
0.0216513853629
0.0237260761652
0.0258946128445
0.0281545296538
0.0305031810266
0.0329377701582
0.035455375658
0.0380529762526
0.0407274735463
0.0434757128753
0.0462945023075
0.049180629857
0.0521308789931
0.0551420425302
0.0582109349915
0.0613344035403
0.0645093375754
0.0677326770861
0.0710014198589
0.0743126276288
0.0776634312609
0.0810510350481
0.0844727202032
0.0879258476219
0.0914078599868
0.0949162832799
0.0984487277647
0.102002888496
0.10557654541
0.109167563047
0.112773889942
0.116393557745
0.120024680078
0.1236654512
0.127314144473
0.130969110694
0.134628776286
0.138291641398
0.141956277911
0.145621327392
0.149285498986
0.152947567291
0.156606370198
0.160260806734
0.163909834892
0.167552469488
0.171187780016
0.174814888546
0.178432967632
0.182041238266
0.185638967864
0.189225468295
0.192800093951
0.196362239862
0.199911339857
0.203446864775
0.206968320719
0.210475247366
0.213967216318
0.217443829504
0.22090471763
0.224349538678
0.227777976446
0.231189739138
0.234584557997
0.237962185977
0.241322396463
0.244664982028
0.247989753227
0.251296537429
0.25458517769
0.257855531652
0.261107470479
0.264340877824
0.267555648826
0.270751689132
0.273928913945
0.277087247102
0.280226620167
0.283346971552
0.286448245654
0.289530392012
0.292593364477
0.295637120405
0.298661619852
0.301666824792
0.30465269834
0.307619203982
0.31056630482
0.313493962816
0.316402138042
0.319290787941
0.322159866575
0.325009323891
0.327839104972
0.330649149297
0.333439389988
0.33620975306
0.338960156666
0.341690510325
0.344400714156
0.347090658095
0.3497602211
0.352409270354
0.355037660447
0.35764523255
0.360231813577
0.362797215329
0.365341233627
0.367863647423
0.370364217909
0.372842687596
0.375298779386
0.377732195625
0.380142617142
0.382529702274
0.384893085874
0.387232378311
0.389547164454
0.391837002647
0.394101423679
0.396339929746
0.398551993407
0.400737056553
0.402894529363
0.405023789287
0.407124180028
0.409195010558
0.411235554148
0.413245047447
0.415222689587
0.417167641358
0.419079024433
0.420955920676
0.422797371532
0.424602377529
0.426369897885
0.428098850266
0.429788110694
0.431436513623
0.433042852235
0.434605878941
0.43612430615
0.437596807311
0.439022018271
0.440398538989
0.44172493562
0.442999743039
0.444221467817
0.445388591715
0.446499575729
0.447552864736
0.448546892795
0.449480089151
0.450350884995
0.45115772102
0.451899055855
0.452573375388
0.453179203058
0.453715111137
0.454179733054
0.454571776783
0.454890039319
0.455133422234
0.455300948332
0.455391779334
0.455405234563
0.45534081053
0.455198201296
0.454977319439
0.454678317398
0.454301608923
0.453847890244
0.453318160548
0.452713741202
0.452036293083
0.451287831254
0.450470736087
0.44958775981
0.448642027317
0.447637029958
0.446576610932
0.445464940862
0.444306482158
0.443105940921
0.441868205494
0.440598271278
0.439301152324
0.43798178142
0.436644901964
0.435294956899
0.43393598211
0.4325715137
0.4312045199
0.429837368163
0.428471835452
0.427109164021
0.425750156475
0.424395294268
0.423044856895
0.421699019437
0.4203579157
0.419021668834
0.417690401581
0.416364238406
0.415043305755
0.413727732102
0.412417647991
0.411113186069
0.409814481128
0.408521670141
0.407234892297
0.405954289045
0.404680004126
0.4034121836
0.402150975679
0.400896528782
0.399648982025
0.398408437016
0.397174900464
0.395948197177
0.394727866482
0.39351306323
0.392302483875
0.391094330847
0.389886319162
0.388675721385
0.38745944219
0.386234111932
0.384996188953
0.383742062025
0.382468146474
0.3811709697
0.379847243658
0.378493923403
0.37710825181
0.375687791362
0.374230444277
0.372734462513
0.371198449194
0.369621352999
0.368002456932
0.366341362754
0.364637972187
0.362892465872
0.361105280887
0.359277087491
0.357408765662
0.355501381854
0.353556166328
0.351574491313
0.349557850194
0.34750783787
0.345426132361
0.343314477726
0.341174668304
0.339008534275
0.33681792852
0.334604714734
0.332370756745
0.330117908977
0.327848007999
0.325562865084
0.323264259714
0.320953933959
0.318633587661
0.316304874361
0.313969397896
0.311628709609
0.309284306114
0.306937627556
0.304590056318
0.302242916127
0.299897471507
0.297554927545
0.295216429929
0.292883065221
0.290555861336
0.288235788192
0.285923758511
0.283620628749
0.28132720012
0.27904421971
0.276772381653
0.274512328366
0.272264651811
0.270029894789
0.26780855225
0.265601072603
0.263407859032
0.261229270797
0.259065624522
0.256917195466
0.25478421877
0.252666890675
0.250565369712
0.248479777863
0.246410201687
0.244356693409
0.242319271985
0.240297924118
0.238292605249
0.236303240516
0.234329725668
0.232371927955
0.230429686989
0.228502815561
0.226591100446
0.224694303165
0.222812160731
0.220944386366
0.219090670198
0.217250679932
0.215424061508
0.213610439742
0.211809418943
0.210020583528
0.208243498621
0.206477710644
0.204722747897
0.202978121143
0.201243324177
0.19951783441
0.197801113439
0.196092607632
0.194391748715
0.192697954365
0.191010628818
0.189329163482
0.187652937574
0.185981318762
0.184313663839
0.182649319403
0.180987622574
0.179327901722
0.177669477238
0.176011662317
0.174353763785
0.172695082954
0.171034916514
0.16937255746
0.167707296059
0.166038420863
0.164365219761
0.162686981072
0.161002994701
0.159312553325
0.157614953644
0.155909497683
0.154195494143
0.152472259814
0.150739121051
0.148995415299
0.147240492689
0.145473717699
0.143694470874
0.141902150615
0.140096175042
0.138275983916
0.136441040644
0.134590834343
0.132724881989
0.130842730627
0.128943959665
0.127028183237
0.125095052637
0.123144258834
0.121175535052
0.119188659428
0.117183457734
0.115159806172
0.113117634234
0.111056927618
0.108977731215
0.106880152135
0.104764362794
0.102630604037
0.100479188292
0.0983105027611
0.0961250126135
0.0939232641946
0.0917058882192
0.0894736029447
0.0872272173033
0.0849676339754
0.0826958523834
0.0804129715819
0.0781201930178
0.0758188231321
0.0735102757689
0.0711960743582
0.0688778538301
0.066557362219
0.064236461909
0.0619171304673
0.0596014610111
0.0572916620422
0.0549900566865
0.0526990812621
0.0504212831009
0.0481593175394
0.0459159439899
0.0436940209995
0.0414965001965
0.0393264190229
0.0371868921442
0.0350811014284
0.0330122843809
0.0309837209239
0.0289987184107
0.0270605947673
0.0251726596629
0.0233381936206
0.0215604249935
0.0198425047541
0.0181874790691
0.0165982596669
0.0150775920471
0.0136280216368
0.0122518580587
0.0109511377623
0.00972758535731
0.00858257410576
0.00751708616075
0.00653167329305
0.00562641902471
0.00480090328791
0.004054170948
0.00338470576758
0.00279041163519
0.00226860312397
0.00181600766119
0.0014287817466
0.00110254371006
0.000832425384924
0.00061314471198
0.000439100580649
0.000304490049577
0.000203446361047
0.000130193802558
7.92124924164e-05
4.54027601384e-05
2.42354109577e-05
1.18716252027e-05
5.23575940893e-06
2.02733507209e-06
6.66208898381e-07
1.77289112879e-07
3.57452403418e-08
4.95092003333e-09
4.05385098026e-10
1.53961565882e-11
1.78378780519e-13
2.79950118875e-16
0
0
0
0
)
;

boundaryField
{
    left
    {
        type            cyclic;
    }
    right
    {
        type            cyclic;
    }
    frontAndBack
    {
        type            empty;
    }
}


// ************************************************************************* //
