/*--------------------------------*- C++ -*----------------------------------*\
| =========                 |                                                 |
| \\      /  F ield         | OpenFOAM: The Open Source CFD Toolbox           |
|  \\    /   O peration     | Version:  dev                                   |
|   \\  /    A nd           | Web:      www.OpenFOAM.org                      |
|    \\/     M anipulation  |                                                 |
\*---------------------------------------------------------------------------*/
FoamFile
{
    version     2.0;
    format      ascii;
    class       volScalarField;
    location    "0";
    object      moment.0.populationBalance;
}
// * * * * * * * * * * * * * * * * * * * * * * * * * * * * * * * * * * * * * //

dimensions      [0 -3 0 0 0 0 0];

internalField   nonuniform List<scalar> 
1000
(
0
0
0
0
0
0
0
0
5.55111512313e-17
2.94209101526e-15
7.13318293322e-14
1.00008890058e-12
9.19453402304e-12
6.0891069964e-11
3.10873549125e-10
1.28673949273e-09
4.48582393453e-09
1.35649932953e-08
3.6411640536e-08
8.83622738868e-08
1.96747158621e-07
4.068006208e-07
7.88815607944e-07
1.44626954468e-06
2.52453183791e-06
4.21969606312e-06
6.78706501628e-06
1.05488485904e-05
1.59007015366e-05
2.33168172762e-05
3.33533922914e-05
4.6650372657e-05
6.39314822518e-05
8.60026062779e-05
0.000113748661628
0.000148129127043
0.000190172431984
0.000240969415628
0.000301666068729
0.000373455763759
0.000457571165036
0.000555275992577
0.000667856792956
0.000796614848885
0.000942858337688
0.00110789482814
0.0012930241858
0.00149953193941
0.0017286831452
0.00198171677231
0.00225984062082
0.00256422677397
0.00289600757809
0.00325627213705
0.00364606330321
0.00406637514241
0.00451815084822
0.00500228107821
0.00551960268422
0.00607089780762
0.0066568933109
0.00727826051692
0.00793561522803
0.00862951799822
0.00936047463236
0.0101289368881
0.0109353033572
0.0117799205043
0.012663083843
0.0135850392299
0.0145459842592
0.0155460697416
0.0165854012524
0.0176640407353
0.0187820081486
0.0199392831444
0.0211358067676
0.0223714831684
0.0236461813173
0.0249597367175
0.0263119531063
0.0277026041399
0.0291314350578
0.0305981643201
0.0321024852152
0.0336440674349
0.0352225586116
0.0368375858186
0.0384887570282
0.0401756625285
0.0418978762957
0.043654957322
0.0454464508984
0.0472718898512
0.0491307957327
0.0510226799651
0.0529470449396
0.0549033850688
0.0568911877941
0.0589099345488
0.0609591016767
0.0630381613079
0.065146582192
0.0672838304897
0.0694493705247
0.0716426654952
0.0738631781477
0.0761103714132
0.0783837090073
0.0806826559957
0.0830066793253
0.0853552483227
0.0877278351615
0.0901239152987
0.0925429678825
0.094984476131
0.0974479276851
0.0999328149343
0.102438635319
0.104964891606
0.107511092148
0.110076751113
0.112661388697
0.11526453132
0.117885711796
0.120524469494
0.123180350472
0.125852907604
0.128541700686
0.131246296528
0.133966269036
0.136701199279
0.139450675537
0.142214293351
0.144991655553
0.147782372282
0.150586061004
0.153402346507
0.156230860901
0.159071243602
0.161923141308
0.164786207975
0.167660104783
0.17054450009
0.17343906939
0.176343495259
0.179257467304
0.182180682093
0.185112843101
0.188053660633
0.191002851755
0.193960140222
0.196925256396
0.199897937167
0.202877925871
0.205864972204
0.208858832137
0.211859267828
0.214866047529
0.217878945501
0.220897741916
0.22392222277
0.226952179784
0.229987410316
0.233027717262
0.236072908964
0.239122799112
0.242177206656
0.245235955703
0.248298875428
0.251365799976
0.254436568373
0.257511024426
0.260589016635
0.263670398099
0.266755026422
0.269842763626
0.272933476056
0.276027034292
0.279123313062
0.282222191151
0.285323551315
0.288427280196
0.291533268234
0.294641409585
0.297751602036
0.300863746924
0.303977749054
0.307093516618
0.310210961118
0.313329997283
0.316450542999
0.319572519227
0.32269584993
0.325820461998
0.32894628518
0.332073252003
0.33520129771
0.338330360186
0.341460379888
0.344591299782
0.347723065272
0.350855624137
0.353988926462
0.357122924583
0.360257573013
0.36339282839
0.366528649412
0.369664996773
0.372801833115
0.375939122956
0.379076832646
0.382214930301
0.385353385751
0.388492170488
0.391631257604
0.39477062175
0.39791023907
0.40105008716
0.404190145012
0.407330392965
0.410470812655
0.413611386967
0.416752099984
0.419892936943
0.423033884187
0.426174929117
0.429316060145
0.432457266655
0.435598538948
0.438739868207
0.441881246449
0.445022666479
0.448164121853
0.451305606829
0.454447116329
0.457588645896
0.460730191651
0.463871750253
0.467013318858
0.470154895079
0.473296476942
0.47643806285
0.479579651541
0.482721242049
0.485862833661
0.489004425884
0.492146018398
0.495287611022
0.498429203673
0.501570796327
0.504712388978
0.507853981602
0.510995574116
0.514137166339
0.517278757951
0.520420348459
0.52356193715
0.526703523058
0.529845104921
0.532986681142
0.536128249747
0.539269808349
0.542411354104
0.545552883671
0.548694393171
0.551835878147
0.554977333521
0.558118753551
0.561260131793
0.564401461052
0.567542733345
0.570683939855
0.573825070883
0.576966115813
0.580107063057
0.583247900016
0.586388613033
0.589529187345
0.592669607035
0.595809854988
0.59894991284
0.60208976093
0.60522937825
0.608368742396
0.611507829512
0.614646614249
0.617785069699
0.620923167354
0.624060877044
0.627198166885
0.630335003227
0.633471350588
0.63660717161
0.639742426987
0.642877075417
0.646011073538
0.649144375863
0.652276934728
0.655408700218
0.658539620112
0.661669639814
0.66479870229
0.667926747997
0.67105371482
0.674179538002
0.67730415007
0.680427480773
0.683549457001
0.686670002717
0.689789038882
0.692906483382
0.696022250946
0.699136253076
0.702248397964
0.705358590415
0.708466731766
0.711572719804
0.714676448685
0.717777808849
0.720876686938
0.723972965708
0.727066523944
0.730157236374
0.733244973578
0.736329601901
0.739410983365
0.742488975574
0.745563431627
0.748634200024
0.751701124572
0.754764044297
0.757822793344
0.760877200888
0.763927091036
0.766972282738
0.770012589684
0.773047820216
0.77607777723
0.779102258084
0.782121054499
0.785133952471
0.788140732172
0.791141167863
0.794135027796
0.797122074129
0.800102062833
0.803074743604
0.806039859778
0.808997148245
0.811946339367
0.814887156899
0.817819317907
0.820742532696
0.823656504741
0.82656093061
0.82945549991
0.832339895217
0.835213792025
0.838076858692
0.840928756398
0.843769139099
0.846597653493
0.849413938996
0.852217627718
0.855008344447
0.857785706649
0.860549324463
0.863298800721
0.866033730964
0.868753703472
0.871458299314
0.874147092396
0.876819649528
0.879475530506
0.882114288204
0.88473546868
0.887338611303
0.889923248887
0.892488907852
0.895035108394
0.897561364681
0.900067185066
0.902552072315
0.905015523869
0.907457032118
0.909876084701
0.912272164839
0.914644751677
0.916993320675
0.919317344004
0.921616290993
0.923889628587
0.926136821852
0.928357334505
0.930550629475
0.93271616951
0.934853417808
0.936961838692
0.939040898323
0.941090065451
0.943108812206
0.945096614931
0.94705295506
0.948977320035
0.950869204267
0.952728110149
0.954553549102
0.956345042678
0.958102123704
0.959824337471
0.961511242972
0.963162414181
0.964777441388
0.966355932565
0.967897514785
0.96940183568
0.970868564942
0.97229739586
0.973688046894
0.975040263282
0.976353818683
0.977628516832
0.978864193232
0.980060716856
0.981217991851
0.982335959265
0.983414598748
0.984453930258
0.985454015741
0.98641496077
0.987336916157
0.988220079496
0.989064696643
0.989871063112
0.990639525368
0.991370482002
0.992064384772
0.992721739483
0.993343106689
0.993929102192
0.994480397316
0.994997718922
0.995481849152
0.995933624858
0.996353936697
0.996743727863
0.997103992422
0.997435773226
0.997740159379
0.998018283228
0.998271316855
0.998500468061
0.998706975814
0.998892105172
0.999057141662
0.999203385151
0.999332143207
0.999444724007
0.999542428835
0.999626544236
0.999698333931
0.999759030584
0.999809827568
0.999851870873
0.999886251338
0.999913997394
0.999936068518
0.999953349627
0.999966646608
0.999976683183
0.999984099298
0.999989451151
0.999993212935
0.999995780304
0.999997475468
0.99999855373
0.999999211184
0.999999593199
0.999999803253
0.999999911638
0.999999963588
0.999999986435
0.999999995514
0.999999998713
0.999999999689
0.999999999939
0.999999999991
0.999999999999
1
1
1
1
1
1
1
1
1
1
1
1
1
1
1
1
1
1
1
1
1
1
0.999999999999
0.999999999991
0.999999999939
0.999999999689
0.999999998713
0.999999995514
0.999999986435
0.999999963588
0.999999911638
0.999999803253
0.999999593199
0.999999211184
0.99999855373
0.999997475468
0.999995780304
0.999993212935
0.999989451151
0.999984099298
0.999976683183
0.999966646608
0.999953349627
0.999936068518
0.999913997394
0.999886251338
0.999851870873
0.999809827568
0.999759030584
0.999698333931
0.999626544236
0.999542428835
0.999444724007
0.999332143207
0.999203385151
0.999057141662
0.998892105172
0.998706975814
0.998500468061
0.998271316855
0.998018283228
0.997740159379
0.997435773226
0.997103992422
0.996743727863
0.996353936697
0.995933624858
0.995481849152
0.994997718922
0.994480397316
0.993929102192
0.993343106689
0.992721739483
0.992064384772
0.991370482002
0.990639525368
0.989871063112
0.989064696643
0.988220079496
0.987336916157
0.98641496077
0.985454015741
0.984453930258
0.983414598748
0.982335959265
0.981217991851
0.980060716856
0.978864193232
0.977628516832
0.976353818683
0.975040263282
0.973688046894
0.97229739586
0.970868564942
0.96940183568
0.967897514785
0.966355932565
0.964777441388
0.963162414181
0.961511242972
0.959824337471
0.958102123704
0.956345042678
0.954553549102
0.952728110149
0.950869204267
0.948977320035
0.94705295506
0.945096614931
0.943108812206
0.941090065451
0.939040898323
0.936961838692
0.934853417808
0.93271616951
0.930550629475
0.928357334505
0.926136821852
0.923889628587
0.921616290993
0.919317344004
0.916993320675
0.914644751677
0.912272164839
0.909876084701
0.907457032118
0.905015523869
0.902552072315
0.900067185066
0.897561364681
0.895035108394
0.892488907852
0.889923248887
0.887338611303
0.88473546868
0.882114288204
0.879475530506
0.876819649528
0.874147092396
0.871458299314
0.868753703472
0.866033730964
0.863298800721
0.860549324463
0.857785706649
0.855008344447
0.852217627718
0.849413938996
0.846597653493
0.843769139099
0.840928756398
0.838076858692
0.835213792025
0.832339895217
0.82945549991
0.82656093061
0.823656504741
0.820742532696
0.817819317907
0.814887156899
0.811946339367
0.808997148245
0.806039859778
0.803074743604
0.800102062833
0.797122074129
0.794135027796
0.791141167863
0.788140732172
0.785133952471
0.782121054499
0.779102258084
0.77607777723
0.773047820216
0.770012589684
0.766972282738
0.763927091036
0.760877200888
0.757822793344
0.754764044297
0.751701124572
0.748634200024
0.745563431627
0.742488975574
0.739410983365
0.736329601901
0.733244973578
0.730157236374
0.727066523944
0.723972965708
0.720876686938
0.717777808849
0.714676448685
0.711572719804
0.708466731766
0.705358590415
0.702248397964
0.699136253076
0.696022250946
0.692906483382
0.689789038882
0.686670002717
0.683549457001
0.680427480773
0.67730415007
0.674179538002
0.67105371482
0.667926747997
0.66479870229
0.661669639814
0.658539620112
0.655408700218
0.652276934728
0.649144375863
0.646011073538
0.642877075417
0.639742426987
0.63660717161
0.633471350588
0.630335003227
0.627198166885
0.624060877044
0.620923167354
0.617785069699
0.614646614249
0.611507829512
0.608368742396
0.60522937825
0.60208976093
0.59894991284
0.595809854988
0.592669607035
0.589529187345
0.586388613033
0.583247900016
0.580107063057
0.576966115813
0.573825070883
0.570683939855
0.567542733345
0.564401461052
0.561260131793
0.558118753551
0.554977333521
0.551835878147
0.548694393171
0.545552883671
0.542411354104
0.539269808349
0.536128249747
0.532986681142
0.529845104921
0.526703523058
0.52356193715
0.520420348459
0.517278757951
0.514137166339
0.510995574116
0.507853981602
0.504712388978
0.501570796327
0.498429203673
0.495287611022
0.492146018398
0.489004425884
0.485862833661
0.482721242049
0.479579651541
0.47643806285
0.473296476942
0.470154895079
0.467013318858
0.463871750253
0.460730191651
0.457588645896
0.454447116329
0.451305606829
0.448164121853
0.445022666479
0.441881246449
0.438739868207
0.435598538948
0.432457266655
0.429316060145
0.426174929117
0.423033884187
0.419892936943
0.416752099984
0.413611386967
0.410470812655
0.407330392965
0.404190145012
0.40105008716
0.39791023907
0.39477062175
0.391631257604
0.388492170488
0.385353385751
0.382214930301
0.379076832646
0.375939122956
0.372801833115
0.369664996773
0.366528649412
0.36339282839
0.360257573013
0.357122924583
0.353988926462
0.350855624137
0.347723065272
0.344591299782
0.341460379888
0.338330360186
0.33520129771
0.332073252003
0.32894628518
0.325820461998
0.32269584993
0.319572519227
0.316450542999
0.313329997283
0.310210961118
0.307093516618
0.303977749054
0.300863746924
0.297751602036
0.294641409585
0.291533268234
0.288427280196
0.285323551315
0.282222191151
0.279123313062
0.276027034292
0.272933476056
0.269842763626
0.266755026422
0.263670398099
0.260589016635
0.257511024426
0.254436568373
0.251365799976
0.248298875428
0.245235955703
0.242177206656
0.239122799112
0.236072908964
0.233027717262
0.229987410316
0.226952179784
0.22392222277
0.220897741916
0.217878945501
0.214866047529
0.211859267828
0.208858832137
0.205864972204
0.202877925871
0.199897937167
0.196925256396
0.193960140222
0.191002851755
0.188053660633
0.185112843101
0.182180682093
0.179257467304
0.176343495259
0.17343906939
0.17054450009
0.167660104783
0.164786207975
0.161923141308
0.159071243602
0.156230860901
0.153402346507
0.150586061004
0.147782372282
0.144991655553
0.142214293351
0.139450675537
0.136701199279
0.133966269036
0.131246296528
0.128541700686
0.125852907604
0.123180350472
0.120524469494
0.117885711796
0.11526453132
0.112661388697
0.110076751113
0.107511092148
0.104964891606
0.102438635319
0.0999328149343
0.0974479276851
0.094984476131
0.0925429678825
0.0901239152987
0.0877278351615
0.0853552483227
0.0830066793253
0.0806826559957
0.0783837090073
0.0761103714132
0.0738631781477
0.0716426654952
0.0694493705247
0.0672838304897
0.065146582192
0.0630381613079
0.0609591016767
0.0589099345488
0.0568911877941
0.0549033850688
0.0529470449396
0.0510226799651
0.0491307957327
0.0472718898512
0.0454464508984
0.043654957322
0.0418978762957
0.0401756625285
0.0384887570282
0.0368375858186
0.0352225586116
0.0336440674349
0.0321024852152
0.0305981643201
0.0291314350578
0.0277026041399
0.0263119531063
0.0249597367175
0.0236461813173
0.0223714831684
0.0211358067676
0.0199392831444
0.0187820081486
0.0176640407353
0.0165854012524
0.0155460697416
0.0145459842592
0.0135850392299
0.012663083843
0.0117799205043
0.0109353033572
0.0101289368881
0.00936047463236
0.00862951799822
0.00793561522803
0.00727826051692
0.0066568933109
0.00607089780762
0.00551960268422
0.00500228107821
0.00451815084822
0.00406637514241
0.00364606330321
0.00325627213705
0.00289600757809
0.00256422677397
0.00225984062082
0.00198171677231
0.0017286831452
0.00149953193941
0.0012930241858
0.00110789482814
0.000942858337688
0.000796614848885
0.000667856792956
0.000555275992577
0.000457571165036
0.000373455763759
0.000301666068729
0.000240969415628
0.000190172431984
0.000148129127043
0.000113748661628
8.60026062779e-05
6.39314822518e-05
4.6650372657e-05
3.33533922914e-05
2.33168172762e-05
1.59007015366e-05
1.05488485904e-05
6.78706501628e-06
4.21969606312e-06
2.52453183791e-06
1.44626954468e-06
7.88815607944e-07
4.068006208e-07
1.96747158621e-07
8.83622738868e-08
3.6411640536e-08
1.35649932953e-08
4.48582393453e-09
1.28673949273e-09
3.10873549125e-10
6.0891069964e-11
9.19453402304e-12
1.00008890058e-12
7.13318293322e-14
2.94209101526e-15
5.55111512313e-17
0
0
0
0
0
0
0
0
)
;

boundaryField
{
    left
    {
        type            cyclic;
    }
    right
    {
        type            cyclic;
    }
    frontAndBack
    {
        type            empty;
    }
}


// ************************************************************************* //
