/*--------------------------------*- C++ -*----------------------------------*\
| =========                 |                                                 |
| \\      /  F ield         | OpenFOAM: The Open Source CFD Toolbox           |
|  \\    /   O peration     | Version:  dev                                   |
|   \\  /    A nd           | Web:      www.OpenFOAM.org                      |
|    \\/     M anipulation  |                                                 |
\*---------------------------------------------------------------------------*/
FoamFile
{
    version     2.0;
    format      ascii;
    class       volScalarField;
    location    "0";
    object      moment.1.populationBalance;
}
// * * * * * * * * * * * * * * * * * * * * * * * * * * * * * * * * * * * * * //

dimensions      [0 -2 0 0 0 0 0];

internalField   nonuniform List<scalar> 
100
(
7.9202e-06
6.98562e-05
0.000190125
0.0003650402
0.0005909922
0.0008644482
0.0011819522
0.001540125
0.0019356642
0.0023653442
0.0028260162
0.0033146082
0.003828125
0.0043636482
0.0049183362
0.0054894242
0.0060742242
0.006670125
0.0072745922
0.0078851682
0.0084994722
0.0091152002
0.009730125
0.0103420962
0.0109490402
0.0115770266494
0.0123857986
0.0133846188272
0.0145544873901
0.0158769666
0.0173341810198
0.0189088174642
0.020584125
0.0223456965161
0.0242673807669
0.0264545066722
0.0290689136557
0.0323490633661
0.0365848266213
0.0420951144893
0.0492078507023
0.0582419610953
0.0694912701691
0.0832103603683
0.0996025251764
0.118809941237
0.140906130344
0.165890712173
0.193686384576
0.224138019447
0.257013729995
0.292007746723
0.328744930824
0.366786751299
0.405638553223
0.444757947449
0.483564155395
0.521448145912
0.557783404234
0.591937175518
0.623282027614
0.651207579395
0.675132242389
0.694514824667
0.708865846993
0.717758422334
0.720838550954
0.719103911871
0.714799708814
0.7079970867
0.698730867454
0.687049381237
0.673014466443
0.656701469695
0.638199245855
0.617610158015
0.595050077499
0.570648383866
0.544547964909
0.516905216651
0.487890043352
0.457685857501
0.426489579824
0.394511639277
0.361975973051
0.32912002657
0.29619475349
0.263464615701
0.231207583327
0.199715134723
0.169292256478
0.140257443416
0.112942698591
0.0876935332916
0.0648689670405
0.0448415275921
0.0279972509345
0.0147356812887
0.00546987110914
0.000626381083117
)
;

boundaryField
{
    left
    {
        type            cyclic;
    }
    right
    {
        type            cyclic;
    }
    frontAndBack
    {
        type            empty;
    }
}


// ************************************************************************* //
