/*--------------------------------*- C++ -*----------------------------------*\
| =========                 |                                                 |
| \\      /  F ield         | OpenFOAM: The Open Source CFD Toolbox           |
|  \\    /   O peration     | Version:  dev                                   |
|   \\  /    A nd           | Web:      www.OpenFOAM.org                      |
|    \\/     M anipulation  |                                                 |
\*---------------------------------------------------------------------------*/
FoamFile
{
    version     2.0;
    format      ascii;
    class       volScalarField;
    location    "0";
    object      moment.0.populationBalance;
}
// * * * * * * * * * * * * * * * * * * * * * * * * * * * * * * * * * * * * * //

dimensions      [0 -3 0 0 0 0 0];

internalField   nonuniform List<scalar> 
100
(
0.00039601
0.00349281
0.00950625
0.01825201
0.02954961
0.04322241
0.05909761
0.07700625
0.09678321
0.11826721
0.14130081
0.16573041
0.19140625
0.21818241
0.24591681
0.27447121
0.30371121
0.33350625
0.36372961
0.39425841
0.42497361
0.45576001
0.48650625
0.51710481
0.54745201
0.578149671235
0.61314337
0.652618595679
0.696056189753
0.74295297
0.792821730494
0.845191241605
0.89960625
0.955726979267
1.01756162742
1.08663072062
1.16192731075
1.24247986593
1.32735227063
1.41564382556
1.50648924779
1.59905867063
1.69255764371
1.78622713297
1.87934352062
1.97121860519
2.06119960149
2.14866914062
2.23304527001
2.31378145334
2.39036657063
2.46232491816
2.52921620853
2.59063557062
2.64621354964
2.69561610704
2.73854462063
2.77473588445
2.8039621089
2.82603092063
2.8407853626
2.84810389408
2.84790039062
2.84012414408
2.8247598626
2.80182767063
2.7713831089
2.73351713445
2.68835612062
2.63606185704
2.57683154964
2.51089782063
2.43852870853
2.36002766816
2.27573357063
2.18602070334
2.09129877001
1.99201289062
1.88864360149
1.78170685519
1.67175402062
1.55937188297
1.44518264371
1.32984392063
1.21404874779
1.09852557556
0.984038270625
0.871386115934
0.761403810748
0.654961470625
0.552964627415
0.456354229267
0.366106640625
0.28323364223
0.208782431119
0.143835620625
0.0895112403781
0.046962736304
0.017378970625
0.00198422185957
)
;

boundaryField
{
    left
    {
        type            cyclic;
    }
    right
    {
        type            cyclic;
    }
    frontAndBack
    {
        type            empty;
    }
}


// ************************************************************************* //
