/*--------------------------------*- C++ -*----------------------------------*\
| =========                 |                                                 |
| \\      /  F ield         | OpenFOAM: The Open Source CFD Toolbox           |
|  \\    /   O peration     | Version:  dev                                   |
|   \\  /    A nd           | Web:      www.OpenFOAM.org                      |
|    \\/     M anipulation  |                                                 |
\*---------------------------------------------------------------------------*/
FoamFile
{
    version     2.0;
    format      ascii;
    class       volScalarField;
    location    "0";
    object      moment.4.populationBalance;
}
// * * * * * * * * * * * * * * * * * * * * * * * * * * * * * * * * * * * * * //

dimensions      [0 1 0 0 0 0 0];

internalField   nonuniform List<scalar> 
100
(
6.33616e-11
5.588496e-10
1.521e-09
2.9203216e-09
4.7279376e-09
6.9155856e-09
9.4556176e-09
1.2321e-08
1.54853136e-08
1.89227536e-08
2.26081296e-08
2.65168656e-08
3.0625e-08
3.49091856e-08
3.93466896e-08
4.39153936e-08
4.85937936e-08
5.3361e-08
5.81967376e-08
6.30813456e-08
6.79957776e-08
7.29216016e-08
7.7841e-08
8.27367696e-08
8.75923216e-08
9.41879343605e-08
1.128546832e-07
1.44288604938e-07
1.87372621768e-07
2.410213392e-07
3.04181046064e-07
3.75829714509e-07
4.54977e-07
5.40683387103e-07
6.33382957823e-07
7.39706407675e-07
8.99625007258e-07
1.28823809984e-06
2.50973851358e-06
6.27845487969e-06
1.67392330933e-05
4.26886205425e-05
0.000100898806889
0.000220606594582
0.000449010312835
0.00085733648664
0.00154673227785
0.00265296108848
0.00434868528362
0.00684206569525
0.0103705326844
0.0151889072356
0.0215515663909
0.0296890219304
0.0397800561434
0.0519213549212
0.0660973039297
0.0821531711958
0.0997751969662
0.118481072085
0.137623856872
0.156411554076
0.173943321719
0.189261757794
0.2014189157
0.209551865132
0.212961879822
0.212768428733
0.211747697898
0.209967349707
0.207437047508
0.204170596023
0.200185941347
0.195505170952
0.190154513683
0.18416433976
0.177569160777
0.170407629705
0.162722540886
0.154560830038
0.145973574256
0.137015992007
0.127747443132
0.118231428849
0.108535591748
0.0987317157967
0.0888957263344
0.0791076900766
0.0694518151129
0.0600164509076
0.0508940882997
0.0421813595027
0.0339790381045
0.026392039068
0.0195294187303
0.0135043748033
0.00843424637349
0.00444051390183
0.00164879922396
0.000188865550111
)
;

boundaryField
{
    left
    {
        type            cyclic;
    }
    right
    {
        type            cyclic;
    }
    frontAndBack
    {
        type            empty;
    }
}


// ************************************************************************* //
