/*--------------------------------*- C++ -*----------------------------------*\
| =========                 |                                                 |
| \\      /  F ield         | OpenFOAM: The Open Source CFD Toolbox           |
|  \\    /   O peration     | Version:  dev                                   |
|   \\  /    A nd           | Web:      www.OpenFOAM.org                      |
|    \\/     M anipulation  |                                                 |
\*---------------------------------------------------------------------------*/
FoamFile
{
    version     2.0;
    format      ascii;
    class       volScalarField;
    location    "0";
    object      moment.1.populationBalance;
}
// * * * * * * * * * * * * * * * * * * * * * * * * * * * * * * * * * * * * * //

dimensions      [0 -2 0 0 0 0 0];

internalField   nonuniform List<scalar> 
1000
(
7.992002e-08
7.1784162e-07
1.9900125e-06
3.89260802e-06
6.42181122e-06
9.57381282e-06
1.334481122e-05
1.77310125e-05
2.272863042e-05
2.833388642e-05
3.454300962e-05
4.135223682e-05
4.87578125e-05
5.675598882e-05
6.534302562e-05
7.451519042e-05
8.426875842e-05
9.46000125e-05
0.00010550524322
0.00011698074882
0.00012902283522
0.00014162781602
0.0001547920125
0.00016851175362
0.00018278337602
0.00019760322402
0.00021296764962
0.0002288730125
0.00024531568002
0.00026229202722
0.00027979843682
0.00029783129922
0.0003163870125
0.00033546198242
0.00035505262242
0.00037515535362
0.00039576660482
0.0004168828125
0.00043850042082
0.00046061588162
0.00048322565442
0.00050632620642
0.0005299140125
0.00055398555522
0.00057853732482
0.00060356581922
0.00062906754402
0.0006550390125
0.00068147674562
0.00070837727202
0.00073573712802
0.00076355285762
0.0007918210125
0.00082053815202
0.00084970084322
0.00087930566082
0.00090934918722
0.0009398280125
0.00097073873442
0.00100207795842
0.00103384229762
0.00106602837282
0.0010986328125
0.00113165225282
0.00116508333762
0.00119892271842
0.00123316705442
0.0012678130125
0.00130285726722
0.00133829650082
0.00137412740322
0.00141034667202
0.0014469510125
0.00148393713762
0.00152130176802
0.00155904163202
0.00159715346562
0.0016356340125
0.00167448002402
0.00171368825922
0.00175325548482
0.00179317847522
0.0018334540125
0.00187407888642
0.00191504989442
0.00195636384162
0.00199801754082
0.0020400078125
0.00208233148482
0.00212498539362
0.00216796638242
0.00221127130242
0.0022548970125
0.00229884037922
0.00234309827682
0.00238766758722
0.00243254520002
0.0024777280125
0.00252321292962
0.00256899686402
0.00261507673602
0.00266144947362
0.0027081120125
0.00275506129602
0.00280229427522
0.00284980790882
0.00289759916322
0.0029456650125
0.00299400243842
0.00304260843042
0.00309147998562
0.00314061410882
0.0031900078125
0.00323965811682
0.00328956204962
0.00333971664642
0.00339011895042
0.0034407660125
0.00349165489122
0.00354278265282
0.00359414637122
0.00364574312802
0.0036975700125
0.00374962412162
0.00380190256002
0.00385440244002
0.00390712088162
0.0039600550125
0.00401320196802
0.00406655889122
0.00412012293282
0.00417389125122
0.0042278610125
0.00428202939042
0.00433639356642
0.00439095072962
0.00444569807682
0.0045006328125
0.00455575214882
0.00461105330562
0.00466653351042
0.00472218999842
0.0047780200125
0.00483402080322
0.00489018962882
0.00494652375522
0.00500302045602
0.0050596770125
0.00511649071362
0.00517345885602
0.00523057874402
0.00528784768962
0.0053452630125
0.00540282204002
0.00546052210722
0.00551836055682
0.00557633473922
0.0056344420125
0.00569267974242
0.00575104530242
0.00580953607362
0.00586814944482
0.0059268828125
0.00598573358082
0.00604469916162
0.00610377697442
0.00616296444642
0.0062222590125
0.00628165811522
0.00634115920482
0.00640075973922
0.00646045718402
0.0065202490125
0.00658013270562
0.00664010575202
0.00670016564802
0.00676030989762
0.0068205360125
0.00688084151202
0.00694122392322
0.00700168078082
0.00706220962722
0.0071228080125
0.00718347349442
0.00724420363842
0.00730499601762
0.00736584821282
0.0074267578125
0.00748772241282
0.00754873961762
0.00760980703842
0.00767092229442
0.0077320830125
0.00779328682722
0.00785453138082
0.00791581432322
0.00797713331202
0.0080384860125
0.00809987009762
0.00816128324802
0.00822272315202
0.00828418750562
0.0083456740125
0.00840718038402
0.00846870433922
0.00853024360482
0.00859179591522
0.0086533590125
0.00871493064642
0.00877650857442
0.00883809056162
0.00889967438082
0.0089612578125
0.00902283864482
0.00908441467362
0.00914598370242
0.00920754354242
0.0092690920125
0.00933062693922
0.00939214615682
0.00945364750722
0.00951512884002
0.0095765880125
0.00963802288962
0.00969943134402
0.00976081125602
0.00982216051362
0.0098834770125
0.00994475865602
0.0100060033552
0.0100672090288
0.0101283736032
0.0101894950125
0.0102505711984
0.0103116001104
0.0103725797056
0.0104335079488
0.0104943828125
0.0105552022768
0.0106159643296
0.0106766669664
0.0107373081904
0.0107978860125
0.0108583984512
0.0109188435328
0.0109792192912
0.011039523768
0.0110997550125
0.0111599110816
0.01121999004
0.0112802740253
0.0113424586919
0.0114068087952
0.0114733043234
0.0115419253207
0.0116126518874
0.0116854641804
0.0117603424125
0.0118372668528
0.0119162178268
0.0119971757159
0.012080120958
0.0121650340471
0.0122518955335
0.0123406860236
0.0124313861802
0.0125239767223
0.0126184384248
0.0127147521194
0.0128128986935
0.0129128590909
0.0130146143119
0.0131181454125
0.0132234335054
0.0133304597593
0.0134392053991
0.013549651706
0.0136617800174
0.0137755717271
0.0138910082847
0.0140080711965
0.0141267420247
0.0142470023878
0.0143688339607
0.0144922184743
0.0146171377158
0.0147435735286
0.0148715078125
0.0150009225233
0.0151317996731
0.0152641213303
0.0153978696193
0.0155330267211
0.0156695748727
0.0158074963671
0.015946773554
0.0160873888391
0.0162293246841
0.0163725636073
0.0165170881831
0.0166628810419
0.0168099248707
0.0169582024125
0.0171076964665
0.0172583898883
0.0174102655895
0.017563306538
0.0177174957582
0.0178728163303
0.0180292513909
0.0181867841329
0.0183453978055
0.0185050757137
0.0186658012193
0.0188275577399
0.0189903287494
0.0191540977782
0.0193188484125
0.0194845642951
0.0196512291248
0.0198188266567
0.0199873407021
0.0201567551285
0.0203270538599
0.020498220876
0.0206702402132
0.0208430959639
0.0210167722767
0.0211912533566
0.0213665234647
0.0215425669183
0.0217193680909
0.0218969114125
0.0220751992201
0.0222550356527
0.0224368510016
0.0226206415535
0.0228064171363
0.0229942007763
0.0231840283597
0.0233759482989
0.0235700212029
0.0237663195519
0.0239649273768
0.0241659399419
0.0243694634328
0.0245756146476
0.0247845206924
0.0249963186809
0.0252111554378
0.025429187206
0.0256505793579
0.0258755061097
0.0261041502405
0.0263367028141
0.0265733629048
0.0268143373266
0.0270598403661
0.0273100935183
0.0275653252264
0.027825770624
0.0280916712817
0.0283632749557
0.02864083534
0.0289246118222
0.029214869241
0.0295118776477
0.0298159120703
0.03012725228
0.0304461825607
0.0307729914817
0.031107971672
0.0314514195977
0.0318036353425
0.0321649223894
0.0325355874058
0.0329159400305
0.0333062926636
0.0337069602576
0.0341182601118
0.0345405116683
0.0349740363102
0.0354191571622
0.0358761988932
0.0363454875202
0.0368273502158
0.0373221151158
0.0378301111305
0.0383516677566
0.0388871148918
0.0394367826514
0.0400010011859
0.0405801005016
0.0411744102824
0.0417842597136
0.0424099773078
0.0430518907322
0.0437103266383
0.0443856104929
0.0450780664118
0.0457880169944
0.0465157831605
0.0472616839898
0.0480260365619
0.0488091557991
0.0496113543114
0.050432942242
0.0512742271166
0.0521355136933
0.0530171038148
0.0539192962631
0.0548423866153
0.0557866671023
0.0567524264687
0.0577399498356
0.0587495185647
0.0597814101248
0.0608358979605
0.0619132513631
0.0630137353428
0.0641376105041
0.0652851329228
0.0664565540252
0.0676521204697
0.0688720740299
0.0701166514813
0.0713860844885
0.072680599496
0.0740004176205
0.0753457545456
0.0767168204192
0.0781138197523
0.0795369513209
0.0809864080696
0.0824623770182
0.0839650391696
0.0854945694208
0.087051136476
0.0886349027619
0.0902460243453
0.0918846508533
0.0935509253952
0.0952449844877
0.0969669579814
0.0987169689899
0.100495133822
0.102301561915
0.104136355772
0.105999610898
0.107891415742
0.109811851643
0.11176099277
0.113738906074
0.115745651234
0.117781280614
0.119845839213
0.121939364626
0.124061886999
0.126213428992
0.128394005742
0.130603624829
0.132842286246
0.135109982363
0.137406697907
0.139732409928
0.142087087785
0.144470693116
0.146883179823
0.149324494057
0.151794574197
0.154293350842
0.1568207468
0.159376677076
0.161961048869
0.164573761565
0.167214706736
0.169883768135
0.172580821706
0.175305735578
0.178058370076
0.180838577726
0.183646203264
0.186481083649
0.189343048074
0.192231917981
0.195147507078
0.198089621357
0.201058059115
0.204052610975
0.207073059913
0.210119181278
0.213190742825
0.21628750474
0.219409219673
0.222555632771
0.225726481711
0.228921496735
0.232140400689
0.235382909063
0.23864873003
0.241937564488
0.245249106106
0.248583041369
0.251939049622
0.255316803123
0.25871596709
0.262136199755
0.265577152413
0.269038469483
0.272519788556
0.276020740459
0.27954094931
0.283080032579
0.286637601151
0.290213259387
0.293806605187
0.29741723006
0.301044719187
0.304688651489
0.308348599699
0.312024130431
0.31571480425
0.319420175749
0.32313979362
0.326873200731
0.330619934203
0.334379525484
0.338151500434
0.3419353794
0.345730677299
0.349536903698
0.353353562902
0.357180154035
0.361016171122
0.364861103183
0.368714434314
0.372575643778
0.376444206093
0.380319591123
0.384201264168
0.388088686058
0.391981313246
0.395878597896
0.399779987988
0.403684927402
0.407592856024
0.411503209838
0.415415421024
0.419328918059
0.423243125815
0.427157465659
0.431071355556
0.434984210167
0.438895440955
0.442804456286
0.446710661535
0.450613459188
0.454512248946
0.458406427836
0.462295390311
0.466178528362
0.470055231621
0.473924887474
0.477786881164
0.481640595905
0.485485412988
0.489320711893
0.493145870399
0.496960264697
0.500763269497
0.504554258145
0.508332602731
0.512097674205
0.515848842488
0.519585476588
0.523306944711
0.527012614375
0.53070185253
0.534374025665
0.53802849993
0.541664641246
0.545281815426
0.548879388284
0.55245672576
0.556013194029
0.559548159619
0.563060989533
0.566551051359
0.570017713391
0.573460344746
0.576878315479
0.580270996704
0.58363776071
0.586977981079
0.5902910328
0.593576292394
0.596833138027
0.600060949627
0.603259109006
0.606426999974
0.609564008459
0.612669522624
0.615742932985
0.618783632528
0.621791016827
0.624764484163
0.627703435639
0.630607275296
0.633475410237
0.636307250734
0.639102210354
0.641859706069
0.644579158375
0.64725999141
0.649901633064
0.652503515102
0.655065073274
0.657585747433
0.660064981647
0.662502224317
0.664896928289
0.667248550968
0.66955655443
0.67182040554
0.674039576059
0.676213542759
0.678341787537
0.68042379752
0.682459065185
0.68444708846
0.686387370843
0.688279421505
0.690122755402
0.691916893384
0.6936613623
0.69535569511
0.696999430989
0.698592115434
0.700133300369
0.70162254425
0.703059412174
0.704443475977
0.705774314338
0.707051512887
0.708274664299
0.709443368403
0.710557232276
0.711615870348
0.712618904497
0.713565964149
0.714456686375
0.71529071599
0.716067705646
0.716787315928
0.717449215449
0.718053080943
0.718598597357
0.719085457944
0.719513364354
0.719882026721
0.720191163756
0.720440502834
0.720629780078
0.720758740451
0.720827137834
0.720834735119
0.720781304283
0.720679147261
0.720551210724
0.720397999614
0.720219520386
0.720015780845
0.719786790147
0.719532558801
0.719253098662
0.718948422941
0.718618546197
0.71826348434
0.717883254631
0.717477875683
0.717047367459
0.716591751271
0.716111049785
0.715605287016
0.71507448833
0.714518680444
0.713937891426
0.713332150694
0.712701489019
0.71204593852
0.711365532668
0.710660306285
0.709930295545
0.70917553797
0.708396072435
0.707591939165
0.706763179736
0.705909837076
0.705031955462
0.704129580521
0.703202759235
0.702251539932
0.701275972295
0.700276107353
0.699251997491
0.698203696442
0.69713125929
0.69603474247
0.694914203768
0.69376970232
0.692601298615
0.691409054491
0.690193033137
0.688953299092
0.687689918249
0.686402957848
0.685092486482
0.683758574094
0.682401291979
0.681020712781
0.679616910497
0.678189960472
0.676739939405
0.675266925344
0.673770997687
0.672252237186
0.670710725939
0.669146547399
0.667559786369
0.665950529002
0.664318862801
0.662664876621
0.660988660669
0.6592903065
0.657569907022
0.655827556494
0.654063350523
0.652277386071
0.650469761447
0.648640576313
0.646789931681
0.644917929914
0.643024674727
0.641110271184
0.639174825701
0.637218446043
0.635241241328
0.633243322025
0.631224799952
0.629185788278
0.627126401525
0.625046755563
0.622946967615
0.620827156254
0.618687441403
0.616527944337
0.614348787682
0.612150095414
0.609931992859
0.607694606696
0.605438064954
0.603162497012
0.6008680336
0.5985548068
0.596222950044
0.593872598114
0.591503887144
0.589116954619
0.586711939375
0.584288981596
0.581848222821
0.579389805936
0.576913875181
0.574420576146
0.571910055769
0.569382462343
0.566837945509
0.56427665626
0.561698746939
0.559104371242
0.556493684213
0.553866842247
0.551224003093
0.548565325848
0.545890970959
0.543201100228
0.540495876802
0.537775465185
0.535040031226
0.53228974213
0.529524766449
0.526745274088
0.523951436302
0.521143425696
0.518321416228
0.515485583205
0.512636103285
0.509773154477
0.506896916142
0.504007568991
0.501105295084
0.498190277835
0.495262702007
0.492322753714
0.489370620421
0.486406490944
0.483430555449
0.480443005453
0.477444033826
0.474433834786
0.471412603903
0.468380538098
0.465337835642
0.462284696157
0.459221320618
0.456147911347
0.45306467202
0.449971807663
0.446869524651
0.443758030713
0.440637534925
0.437508247719
0.434370380872
0.431224147515
0.428069762131
0.424907440551
0.421737399959
0.418559858888
0.415375037223
0.412183156199
0.408984438404
0.405779107773
0.402567389596
0.39934951051
0.396125698507
0.392896182925
0.389661194457
0.386420965144
0.38317572838
0.379925718908
0.376671172823
0.373412327571
0.370149421947
0.366882696098
0.363612391523
0.360338751071
0.35706201894
0.353782440681
0.350500263195
0.347215734735
0.343929104903
0.340640624653
0.337350546289
0.334059123467
0.330766611193
0.327473265823
0.324179345066
0.320885107979
0.317590814973
0.314296727808
0.311003109595
0.307710224796
0.304418339222
0.301127720039
0.29783863576
0.294551356251
0.291266152726
0.287983297755
0.284703065253
0.28142573049
0.278151570084
0.274880862006
0.271613885577
0.268350921469
0.265092251704
0.261838159655
0.258588930047
0.255344848955
0.252106203805
0.248873283373
0.245646377788
0.242425778526
0.239211778419
0.236004671645
0.232804753735
0.229612321571
0.226427673386
0.223251108762
0.220082928635
0.216923435288
0.213772932358
0.210631724831
0.207500119045
0.204378422687
0.201266944798
0.198165995766
0.195075887333
0.19199693259
0.188929445979
0.185873743294
0.182830141678
0.179798959627
0.176780516986
0.173775134951
0.170783136071
0.167804844242
0.164840584713
0.161890684086
0.15895547031
0.156035272686
0.153130421867
0.150241249856
0.147368090007
0.144511277024
0.141671146964
0.138848037231
0.136042286584
0.133254235131
0.13048422433
0.127732596991
0.124999697274
0.122285870692
0.119591464105
0.116916825726
0.114262305121
0.111628253202
0.109015022236
0.106422965839
0.103852438977
0.10130379797
0.0987774004841
0.0962736055406
0.0937927735093
0.0913352661114
0.088901446419
0.0864916788547
0.0841063291924
0.0817457645563
0.0794103534218
0.0771004656151
0.074816472313
0.0725587460433
0.0703276606846
0.0681235914662
0.0659469149685
0.0637980091224
0.0616772532098
0.0595850278635
0.0575217150669
0.0554876981543
0.053483361811
0.051509092073
0.049565276327
0.0476523033106
0.0457705631124
0.0439204471716
0.0421023482784
0.0403166605735
0.0385637795489
0.0368441020471
0.0351580262614
0.0335059517361
0.0318882793663
0.0303054113977
0.0287577514272
0.0272457044021
0.0257696766209
0.0243300757328
0.0229273107376
0.0215617919862
0.0202339311803
0.0189441413722
0.0176928369653
0.0164804337137
0.0153073487222
0.0141740004467
0.0130808086937
0.0120281946206
0.0110165807356
0.0100463908978
0.00911805031703
0.00823198555394
0.00738862452008
0.00658839647778
0.00583173204019
0.00511906317129
0.00445082318589
0.00382744674962
0.00324936987893
0.00271702994108
0.00223086565418
0.00179131708715
0.00139882565973
0.00105383414249
0.000756786656814
0.000508128674925
0.000308307019855
0.000157769865467
5.69667364418e-05
6.34850828834e-06
)
;

boundaryField
{
    left
    {
        type            cyclic;
    }
    right
    {
        type            cyclic;
    }
    frontAndBack
    {
        type            empty;
    }
}


// ************************************************************************* //
