/*--------------------------------*- C++ -*----------------------------------*\
| =========                 |                                                 |
| \\      /  F ield         | OpenFOAM: The Open Source CFD Toolbox           |
|  \\    /   O peration     | Version:  dev                                   |
|   \\  /    A nd           | Web:      www.OpenFOAM.org                      |
|    \\/     M anipulation  |                                                 |
\*---------------------------------------------------------------------------*/
FoamFile
{
    version     2.0;
    format      ascii;
    class       volScalarField;
    location    "0";
    object      moment.2.populationBalance;
}
// * * * * * * * * * * * * * * * * * * * * * * * * * * * * * * * * * * * * * //

dimensions      [0 -1 0 0 0 0 0];

internalField   nonuniform List<scalar> 
1000
(
1.5984004e-09
1.43568324e-08
3.980025e-08
7.78521604e-08
1.284362244e-07
1.914762564e-07
2.668962244e-07
3.5462025e-07
4.545726084e-07
5.666777284e-07
6.908601924e-07
8.270447364e-07
9.7515625e-07
1.1351197764e-06
1.3068605124e-06
1.4903038084e-06
1.6853751684e-06
1.89200025e-06
2.1101048644e-06
2.3396149764e-06
2.5804567044e-06
2.8325563204e-06
3.09584025e-06
3.3702350724e-06
3.6556675204e-06
3.9520644804e-06
4.2593529924e-06
4.57746025e-06
4.9063136004e-06
5.2458405444e-06
5.5959687364e-06
5.9566259844e-06
6.32774025e-06
6.7092396484e-06
7.1010524484e-06
7.5031070724e-06
7.9153320964e-06
8.33765625e-06
8.7700084164e-06
9.2123176324e-06
9.6645130884e-06
1.01265241284e-05
1.059828025e-05
1.10797111044e-05
1.15707464964e-05
1.20713163844e-05
1.25813508804e-05
1.310078025e-05
1.36295349124e-05
1.41675454404e-05
1.47147425604e-05
1.52710571524e-05
1.583642025e-05
1.64107630404e-05
1.69940168644e-05
1.75861132164e-05
1.81869837444e-05
1.879656025e-05
1.94147746884e-05
2.00415591684e-05
2.06768459524e-05
2.13205674564e-05
2.197265625e-05
2.26330450564e-05
2.33016667524e-05
2.39784543684e-05
2.46633410884e-05
2.535626025e-05
2.60571453444e-05
2.67659300164e-05
2.74825480644e-05
2.82069334404e-05
2.893902025e-05
2.96787427524e-05
3.04260353604e-05
3.11808326404e-05
3.19430693124e-05
3.271268025e-05
3.34896004804e-05
3.42737651844e-05
3.50651096964e-05
3.58635695044e-05
3.666908025e-05
3.74815777284e-05
3.83009978884e-05
3.91272768324e-05
3.99603508164e-05
4.080015625e-05
4.16466296964e-05
4.24997078724e-05
4.33593276484e-05
4.42254260484e-05
4.509794025e-05
4.59768075844e-05
4.68619655364e-05
4.77533517444e-05
4.86509040004e-05
4.955456025e-05
5.04642585924e-05
5.13799372804e-05
5.23015347204e-05
5.32289894724e-05
5.416224025e-05
5.51012259204e-05
5.60458855044e-05
5.69961581764e-05
5.79519832644e-05
5.891330025e-05
5.98800487684e-05
6.08521686084e-05
6.18295997124e-05
6.28122821764e-05
6.380015625e-05
6.47931623364e-05
6.57912409924e-05
6.67943329284e-05
6.78023790084e-05
6.881532025e-05
6.98330978244e-05
7.08556530564e-05
7.18829274244e-05
7.29148625604e-05
7.395140025e-05
7.49924824324e-05
7.60380512004e-05
7.70880488004e-05
7.81424176324e-05
7.920110025e-05
8.02640393604e-05
8.13311778244e-05
8.24024586564e-05
8.34778250244e-05
8.455722025e-05
8.56405878084e-05
8.67278713284e-05
8.78190145924e-05
8.89139615364e-05
9.001265625e-05
9.11150429764e-05
9.22210661124e-05
9.33306702084e-05
9.44437999684e-05
9.556040025e-05
9.66804160644e-05
9.78037925764e-05
9.89304751044e-05
0.00010006040912
0.00010119354025
0.000102329814272
0.00010346917712
0.00010461157488
0.000105756953792
0.00010690526025
0.0001080564408
0.000109210442144
0.000110367211136
0.000111526694784
0.00011268884025
0.000113853594848
0.000115020906048
0.000116190721472
0.000117362988896
0.00011853765625
0.000119714671616
0.000120893983232
0.000122075539488
0.000123259288928
0.00012444518025
0.000125633162304
0.000126823184096
0.000128015194784
0.00012920914368
0.00013040498025
0.000131602654112
0.00013280211504
0.00013400331296
0.000135206197952
0.00013641072025
0.00013761683024
0.000138824478464
0.000140033615616
0.000141244192544
0.00014245616025
0.000143669469888
0.000144884072768
0.000146099920352
0.000147316964256
0.00014853515625
0.000149754448256
0.000150974792352
0.000152196140768
0.000153418445888
0.00015464166025
0.000155865736544
0.000157090627616
0.000158316286464
0.00015954266624
0.00016076972025
0.000161997401952
0.00016322566496
0.00016445446304
0.000165683750112
0.00016691348025
0.00016814360768
0.000169374086784
0.000170604872096
0.000171835918304
0.00017306718025
0.000174298612928
0.000175530171488
0.000176761811232
0.000177993487616
0.00017922515625
0.000180456772896
0.000181688293472
0.000182919674048
0.000184150870848
0.00018538184025
0.000186612538784
0.000187842923136
0.000189072950144
0.0001903025768
0.00019153176025
0.000192760457792
0.00019398862688
0.00019521622512
0.000196443210272
0.00019766954025
0.00019889517312
0.000200120067104
0.000201344180576
0.000202567472064
0.00020378990025
0.000205011423968
0.000206232002208
0.000207451594112
0.000208670158976
0.00020988765625
0.000211104045536
0.000212319286592
0.000213533339328
0.000214746163808
0.00021595772025
0.000217167969024
0.000218376870656
0.000219584385824
0.00022079047536
0.00022199510025
0.000223198221632
0.0002243998008
0.000225611161813
0.000226900169242
0.000228277451559
0.000229742246376
0.000231293793402
0.000232931334441
0.000234654113392
0.00023646137625
0.000238352371105
0.000240326348142
0.000242382559642
0.000244520259982
0.000246738705633
0.000249037155162
0.000251414869232
0.000253871110601
0.000256405144122
0.000259016236744
0.000261703657511
0.000264466677562
0.000267304570133
0.000270216610554
0.00027320207625
0.000276260246743
0.00027939040365
0.000282591830682
0.000285863813647
0.000289205640448
0.000292616601082
0.000296095987644
0.000299643094322
0.000303257217402
0.000306937655262
0.000310683708379
0.000314494679322
0.000318369872758
0.000322308595448
0.00032631015625
0.000330373866115
0.000334499038091
0.000338684987322
0.000342931031045
0.000347236488596
0.000351600681402
0.000356022932989
0.000360502568977
0.000365038917082
0.000369631307114
0.00037427907098
0.000378981542682
0.000383738058317
0.000388547956077
0.00039341057625
0.00039832526122
0.000403291355466
0.000408308205562
0.000413375160177
0.000418491570077
0.000423656788122
0.000428870169268
0.000434131070565
0.000439438851162
0.000444792872299
0.000450192497315
0.000455637091642
0.000461126022808
0.000466658660438
0.00047223437625
0.000477852544059
0.000483512539774
0.000489213741402
0.000494955529042
0.000500737284892
0.000506558393242
0.00051241824048
0.000518316215087
0.000524251707642
0.000530224110818
0.000536232819383
0.000542277230202
0.000548356742234
0.000554470756533
0.00056061867625
0.000566800267567
0.000573031530753
0.00057932107964
0.000585669029624
0.000592076057539
0.000598543407068
0.000605072900899
0.000611666959242
0.000618328624379
0.000625061590874
0.000631870241132
0.000638759685945
0.000645735809726
0.000652805320091
0.000659975801491
0.000667255772592
0.000674654747092
0.000682183297712
0.000689853123058
0.0006976771171
0.000705669441001
0.000713845597032
0.000722222504345
0.000730818576351
0.000739653799476
0.000748749813091
0.000758129990369
0.000767819519901
0.000777845487847
0.000788236960446
0.0007990250667
0.000810243081047
0.000821926505881
0.000834113153724
0.000846843228925
0.000860159408718
0.000874106923514
0.000888733636275
0.000904090120845
0.000920229739126
0.000937208716954
0.000955086218581
0.000973924419643
0.000993788578511
0.00101474710591
0.00103687163275
0.00106023707599
0.00108492170256
0.00111100719113
0.00113857869175
0.00116772488321
0.00119853802807
0.00123111402525
0.00126555246017
0.00130195665232
0.0013404337002
0.00138109452358
0.00142405390295
0.00146943051626
0.00151734697268
0.00156792984349
0.00162130968993
0.00167762108809
0.00173700265061
0.00179959704531
0.00186555101061
0.00193501536772
0.00200814502956
0.00208509900638
0.00216604040799
0.00225113644266
0.00234055841255
0.00243448170574
0.00253308578473
0.0026365541715
0.00274507442898
0.00285883813901
0.00297804087673
0.00310288218137
0.00323356552345
0.00337029826842
0.00351329163659
0.0036627606595
0.00381892413267
0.00398200456473
0.00415222812283
0.0043298245746
0.00451502722633
0.00470807285767
0.00490920165267
0.00511865712726
0.00533668605322
0.00556353837856
0.0057994671444
0.00604472839835
0.00629958110453
0.00656428705
0.00683911074792
0.00712431933733
0.00742018247957
0.00772697225147
0.00804496303525
0.00837443140532
0.00871565601186
0.00906891746131
0.00943449819389
0.00981268235807
0.0102037556821
0.010608005343
0.0110257198317
0.0114571888174
0.0119027030067
0.0123625540026
0.0128370341591
0.0133264364345
0.0138310542413
0.0143511812952
0.0148871114599
0.0154391385919
0.0160075563813
0.0165926581917
0.0171947368979
0.0178140847217
0.0184509930658
0.0191057523464
0.0197786518238
0.0204699794318
0.0211800216055
0.0219090631075
0.0226573868539
0.0234252737378
0.0242130024524
0.0250208493135
0.0258490880806
0.026697989777
0.0275678225101
0.0284588512902
0.0293713378494
0.0303055404598
0.0312617137516
0.0322401085308
0.0332409715969
0.0342645455606
0.0353110686616
0.0363807745864
0.0374738922868
0.0385906457981
0.0397312540586
0.040895930729
0.0420848840126
0.0432983164769
0.0445364248749
0.0457993999683
0.0470874263516
0.048400682277
0.0497393394807
0.0511035630107
0.0524935110561
0.0539093347772
0.0553511781383
0.0568191777415
0.0583134626623
0.0598341542875
0.0613813661549
0.0629552037947
0.0645557645738
0.0661831375415
0.0678374032785
0.0695186337474
0.0712268921465
0.0729622327653
0.0747247008438
0.0765143324334
0.0783311542618
0.0801751835995
0.0820464281309
0.0839448858269
0.0858705448217
0.0878233832925
0.0898033693424
0.091810460887
0.0938446055442
0.0959057405274
0.0979937925429
0.10010867769
0.102250301366
0.104418558174
0.106613331835
0.108834495104
0.111081909689
0.113355426179
0.115654883965
0.117980111179
0.120330924627
0.122707129731
0.125108520474
0.127534879348
0.129985977311
0.132461573742
0.134961416408
0.137485241425
0.140032773239
0.142603724594
0.145197796519
0.147814678314
0.150454047537
0.153115570003
0.155798899786
0.15850367922
0.161229538912
0.163976097758
0.166742962962
0.169529730062
0.172335982958
0.175161293951
0.17800522378
0.180867321669
0.183747125377
0.186644161254
0.189557944301
0.192487978234
0.195433755559
0.198394757644
0.201370454803
0.204360306381
0.207363760842
0.210380255872
0.213409218477
0.216450065089
0.219502201677
0.22256502387
0.225637917071
0.228720256589
0.231811407771
0.234910726137
0.238017557525
0.241131238234
0.244251095183
0.247376446062
0.250506599497
0.253640855218
0.256778504227
0.25991882898
0.263061103567
0.266204593896
0.269348557887
0.272492245667
0.275634899772
0.278775755348
0.281914040367
0.285048975837
0.288179776023
0.291305648669
0.294425795227
0.297539411088
0.300645685818
0.303743803402
0.306832942484
0.30991227662
0.312980974527
0.316038200346
0.319083113894
0.322114870937
0.325132623454
0.328135519912
0.331122705538
0.334093322603
0.3370465107
0.339981407034
0.342897146712
0.345792863033
0.348667687786
0.351520751548
0.354351183987
0.357158114167
0.359940670857
0.362697982839
0.365429179223
0.368133389762
0.370809745171
0.373457377448
0.376075420195
0.378663008946
0.381219281489
0.383743378201
0.386234442376
0.388691620556
0.391114062867
0.393500923357
0.395851360328
0.39816453668
0.400439620246
0.402675784134
0.404872207073
0.407028073748
0.409142575151
0.411214908918
0.413244279678
0.415229899397
0.417170987722
0.419066772325
0.420916489253
0.422719383267
0.424474708191
0.426181727254
0.427839713436
0.429447949808
0.431005729881
0.432512357939
0.433967149385
0.435369431082
0.436718541686
0.438013831985
0.439254665236
0.440440417497
0.441570477957
0.442644249271
0.443661147879
0.44462060434
0.445522063651
0.446364985567
0.447148844919
0.44787313193
0.448537352529
0.449141028654
0.449683698565
0.45016491714
0.450584256179
0.450941304696
0.451235669211
0.451466974041
0.451634861577
0.45173899257
0.451779046401
0.451771479536
0.451746999545
0.451706276707
0.451649313174
0.451576111974
0.451486677015
0.451381013077
0.45125912582
0.451121021779
0.450966708367
0.450796193873
0.450609487463
0.450406599178
0.45018753994
0.449952321543
0.449700956659
0.449433458839
0.449149842509
0.44885012297
0.448534316403
0.448202439864
0.447854511286
0.447490549478
0.447110574126
0.446714605793
0.44630266592
0.445874776823
0.445430961694
0.444971244603
0.444495650498
0.4440042052
0.443496935411
0.442973868707
0.44243503354
0.441880459242
0.441310176019
0.440724214955
0.440122608008
0.439505388018
0.438872588696
0.438224244633
0.437560391297
0.436881065031
0.436186303056
0.435476143467
0.43475062524
0.434009788225
0.433253673149
0.432482321617
0.431695776107
0.430894079979
0.430077277466
0.429245413679
0.428398534605
0.427536687108
0.42665991893
0.425768278688
0.424861815876
0.423940580865
0.423004624903
0.422054000114
0.4210887595
0.420108956939
0.419114647184
0.418105885867
0.417082729496
0.416045235456
0.414993462007
0.413927468289
0.412847314316
0.411753060979
0.410644770046
0.409522504163
0.408386326851
0.407236302508
0.406072496409
0.404894974706
0.403703804428
0.402499053479
0.401280790642
0.400049085574
0.398804008812
0.397545631766
0.396274026726
0.394989266858
0.393691426202
0.392380579679
0.391056803083
0.389720173086
0.388370767238
0.387008663964
0.385633942567
0.384246683224
0.382846966993
0.381434875806
0.380010492471
0.378573900675
0.377125184979
0.375664430824
0.374191724525
0.372707153276
0.371210805144
0.369702769077
0.368183134897
0.366651993303
0.365109435872
0.363555555057
0.361990444187
0.360414197469
0.358826909986
0.357228677697
0.355619597438
0.353999766924
0.352369284743
0.350728250363
0.349076764126
0.347414927253
0.345742841839
0.34406061086
0.342368338164
0.340666128478
0.338954087407
0.337232321429
0.335500937902
0.333760045061
0.332009752014
0.330250168749
0.328481406129
0.326703575896
0.324916790666
0.323121163933
0.321316810068
0.319503844318
0.317682382806
0.315852542534
0.31401444138
0.312168198096
0.310313932314
0.308451764541
0.306581816162
0.304704209437
0.302819067504
0.300926514378
0.299026674949
0.297119674985
0.29520564113
0.293284700907
0.291356982711
0.28942261582
0.287481730382
0.285534457427
0.283580928858
0.281621277459
0.279655636885
0.277684141673
0.275706927234
0.273724129856
0.271735886704
0.269742335819
0.26774361612
0.265739867402
0.263731230337
0.261717846473
0.259699858235
0.257677408925
0.255650642722
0.253619704681
0.251584740734
0.249545897689
0.247503323233
0.245457165926
0.243407575208
0.241354701395
0.239298695679
0.237239710127
0.235177897688
0.233113412181
0.231046408307
0.228977041642
0.226905468637
0.224831846622
0.222756333803
0.220679089262
0.218600272959
0.216520045729
0.214438569285
0.212356006218
0.210272519992
0.20818827495
0.206103436313
0.204018170176
0.201932643513
0.199847024172
0.19776148088
0.195676183241
0.193591301734
0.191507007715
0.189423473418
0.187340871952
0.185259377304
0.183179164338
0.181100408793
0.179023287286
0.176947977311
0.174874657237
0.172803506312
0.170734704658
0.168668433277
0.166604874044
0.164544209715
0.162486623918
0.160432301162
0.158381426829
0.15633418718
0.154290769354
0.152251361362
0.150216152096
0.148185331324
0.146159089689
0.144137618712
0.14212111079
0.140109759197
0.138103758085
0.136103302481
0.134108588288
0.132119812289
0.13013717214
0.128160866376
0.126191094408
0.124228056524
0.122271953888
0.120322988542
0.118381363403
0.116447282265
0.114520949801
0.112602571559
0.110692353962
0.108790504312
0.106897230788
0.105012742444
0.103137249212
0.101270961899
0.0994140921922
0.0975668526516
0.0957294567159
0.0939021187003
0.0920850537966
0.090278478073
0.088482608475
0.0866976628243
0.0849238598195
0.083161419036
0.0814105609258
0.0796715068174
0.0779444789165
0.0762297003051
0.074527394942
0.0728377876628
0.0711611041797
0.0694975710817
0.0678474158344
0.0662108667802
0.0645881531381
0.062979505004
0.0613851533503
0.0598053300262
0.0582402677576
0.056690200147
0.0551553616739
0.0536359876942
0.0521323144406
0.0506445790226
0.0491730194262
0.0477178745144
0.0462793840266
0.0448577885792
0.043453329665
0.0420662496537
0.0406967917918
0.0393452002022
0.0380117198848
0.036696596716
0.0354000774491
0.0341224097139
0.0328638420171
0.0316246237419
0.0304050051483
0.0292052373732
0.0280255724299
0.0268662632086
0.025727563476
0.0246097278758
0.0235130119283
0.0224376720303
0.0213839654555
0.0203521503544
0.0193424857539
0.0183552315579
0.017390648547
0.0164489983781
0.0155305435854
0.0146355475793
0.0137642746473
0.0129169899533
0.012093959538
0.011295450319
0.0105217300903
0.00977306752273
0.00904973216395
0.00835199443817
0.00768012564637
0.00703439796621
0.00641508445208
0.00582245903507
0.00525679652295
0.00471837260025
0.00420746382815
0.00372434764456
0.00326930236412
0.00284260717814
0.00244454215464
0.00207538823838
0.00173542725078
0.00142494189
0.00114421573088
0.000893533225004
0.000673179700623
0.000483441362715
0.000324605292958
0.000196959449739
0.00010079266815
3.63946599878e-05
4.05601375825e-06
)
;

boundaryField
{
    left
    {
        type            cyclic;
    }
    right
    {
        type            cyclic;
    }
    frontAndBack
    {
        type            empty;
    }
}


// ************************************************************************* //
