/*--------------------------------*- C++ -*----------------------------------*\
  =========                 |
  \\      /  F ield         | OpenFOAM: The Open Source CFD Toolbox
   \\    /   O peration     | Website:  https://openfoam.org
    \\  /    A nd           | Version:  dev
     \\/     M anipulation  |
\*---------------------------------------------------------------------------*/
FoamFile
{
    version     2.0;
    format      ascii;
    class       volScalarField;
    location    "0";
    object      moment.200.particles;
}
// * * * * * * * * * * * * * * * * * * * * * * * * * * * * * * * * * * * * * //

dimensions      [0 2 -2 0 0 0 0];

internalField   nonuniform List<scalar> 
120
(
0.025
0.0252101
0.0254202
0.0256303
0.0258404
0.0260504
0.0262605
0.0264706
0.0266807
0.0268907
0.0271008
0.0273109
0.027521
0.0277311
0.0279412
0.0281512
0.0283614
0.0285714
0.0287815
0.0289916
0.0292017
0.0294118
0.0296219
0.029832
0.030042
0.0302521
0.0304622
0.0306723
0.0308823
0.0310925
0.0313025
0.0315126
0.0317227
0.0319328
0.0321429
0.032353
0.0325631
0.0327731
0.0329832
0.0331933
0.0334034
0.0336135
0.0338236
0.0340336
0.0342437
0.0344538
0.0346639
0.034874
0.035084
0.0352941
0.0355042
0.0357143
0.0359244
0.0361345
0.0363445
0.0365546
0.0367647
0.0369748
0.0371849
0.037395
0.0376051
0.0378151
0.0380252
0.0382353
0.0384454
0.0386555
0.0388655
0.0390757
0.0392857
0.0394958
0.0397059
0.039916
0.0401261
0.0403362
0.0405462
0.0407563
0.0409664
0.0411764
0.0413865
0.0415967
0.0418067
0.0420168
0.0422269
0.042437
0.0426471
0.0428572
0.0430673
0.0432773
0.0434874
0.0436975
0.0439076
0.0441177
0.0443278
0.0445378
0.0447479
0.044958
0.0451681
0.0453781
0.0455883
0.0457983
0.0460084
0.0462185
0.0464285
0.0466387
0.0468488
0.0470588
0.0472689
0.047479
0.0476891
0.0478992
0.0481092
0.0483193
0.0485294
0.0487395
0.0489496
0.0491596
0.0493698
0.0495799
0.0497899
0.05
)
;

boundaryField
{
    left
    {
        type            zeroGradient;
    }
    right
    {
        type            zeroGradient;
    }
    defaultFaces
    {
        type            empty;
    }
}


// ************************************************************************* //
