/*--------------------------------*- C++ -*----------------------------------*\
  =========                 |
  \\      /  F ield         | OpenFOAM: The Open Source CFD Toolbox
   \\    /   O peration     | Website:  https://openfoam.org
    \\  /    A nd           | Version:  dev
     \\/     M anipulation  |
\*---------------------------------------------------------------------------*/
FoamFile
{
    version     2.0;
    format      ascii;
    class       volVectorField;
    location    "0";
    object      U;
}
// * * * * * * * * * * * * * * * * * * * * * * * * * * * * * * * * * * * * * //

dimensions      [ 0 1 -1 0 0 0 0 ];

internalField   nonuniform List<vector> 
3000
(
(0.000125345480938 0.000544538443489 0)
(0.000309894894602 0.000886674640894 0)
(0.000321520559391 0.00101848381612 -4.11508905731e-30)
(0.000287269126588 0.00106195710772 -2.40349994971e-30)
(0.000240552652122 0.00106608646334 0)
(0.000197429648351 0.00105395751241 0)
(0.000158497957955 0.00103529941904 0)
(0.000126595197658 0.00101923825051 0)
(0.000100486983174 0.00101032171591 0)
(7.89824354729e-05 0.00100623249484 0)
(6.07887924377e-05 0.00100395690467 0)
(4.50175220022e-05 0.00100261100017 0)
(3.09201583725e-05 0.00100192358448 0)
(1.82032051973e-05 0.00100204503671 0)
(5.98332725931e-06 0.00100203940052 0)
(3.55590113351e-05 0.000424472766556 0)
(0.000162440700945 0.000799325115271 0)
(0.000236039706389 0.000990802482788 -1.68027188722e-29)
(0.000280720647373 0.00107725415368 -1.04314752892e-29)
(0.000296342325602 0.00110668558369 0)
(0.000289715426917 0.00111118369254 0)
(0.000268772488655 0.00110508607338 0)
(0.000241244697055 0.00109519504802 0)
(0.000208543330273 0.00108437303886 0)
(0.000174844463667 0.00107347026216 0)
(0.000141318576983 0.00106440654646 0)
(0.000108515451528 0.00105755055796 0)
(7.66393919052e-05 0.00105242743088 0)
(4.54333434617e-05 0.00104858985758 0)
(1.50979517728e-05 0.00104689005322 0)
(1.00226483528e-05 0.000233803009463 0)
(9.31839476745e-05 0.000568773639013 0)
(0.000164758327878 0.000807186567454 -4.85876094203e-30)
(0.000225876428285 0.000963943834783 -4.0117608556e-30)
(0.000263215206183 0.00105884374236 0)
(0.00027824807006 0.00111118865796 0)
(0.000276589188962 0.00113330944781 0)
(0.000262149319445 0.00114165774317 0)
(0.000238645054723 0.00114393790372 0)
(0.00020867580817 0.00114122014607 0)
(0.000174451312144 0.00113663331063 0)
(0.000137586335915 0.00113178395325 0)
(9.91937635218e-05 0.00112753851701 0)
(5.98453661915e-05 0.00112436270872 0)
(1.9993994134e-05 0.00112265666826 0)
(4.21711406128e-06 0.000180045898766 0)
(4.56685421925e-05 0.000469255054875 0)
(9.59281444633e-05 0.000699760578256 -8.42994703934e-30)
(0.000147110201877 0.000872316124683 -7.38167802466e-30)
(0.000188028600251 0.00099596096597 0)
(0.000215819206874 0.00108072093204 0)
(0.000228432312537 0.0011354767605 0)
(0.000227037968427 0.00116914574077 0)
(0.00021493930743 0.0011892896282 0)
(0.00019416292208 0.00120026369867 0)
(0.00016665193815 0.00120542575249 0)
(0.000134161023332 0.00120719716219 0)
(9.81493599041e-05 0.00120723308572 0)
(5.97884283736e-05 0.00120663928451 0)
(2.0075621621e-05 0.00120616590268 0)
(1.39105552001e-06 0.000142606330786 0)
(2.48530047392e-05 0.000392976731552 0)
(5.80525750072e-05 0.000608668933724 -1.39454785625e-29)
(9.54386251658e-05 0.000785733192481 -1.37130866929e-29)
(0.000129067880866 0.00092588792109 0)
(0.000155170462002 0.00103330228981 0)
(0.000171518097666 0.0011130371147 0)
(0.000177393789493 0.00117058304993 0)
(0.000173439389237 0.00121114565163 0)
(0.000160877587309 0.00123898253389 0)
(0.000141088384892 0.00125752997327 0)
(0.000115514676709 0.00126945742076 0)
(8.55589828571e-05 0.00127676154647 0)
(5.25412402263e-05 0.0012808623495 0)
(1.77131204995e-05 0.00128268532779 0)
(7.24433589556e-07 0.000125729252554 0)
(1.40279514969e-05 0.00035195233856 0)
(3.50321286862e-05 0.000553976375611 -7.45981607701e-30)
(6.03271760768e-05 0.000728336157906 -7.51489070786e-30)
(8.49992073167e-05 0.000874676345685 0)
(0.000105948198303 0.000994378810022 0)
(0.000120967320499 0.00108995113682 0)
(0.000128836776052 0.00116458180756 0)
(0.000129237775411 0.0012216868815 0)
(0.00012250042996 0.00126446545337 0)
(0.000109358397918 0.00129575440566 0)
(9.07999697037e-05 0.0013179395785 0)
(6.7953335779e-05 0.00133292421223 0)
(4.20148949113e-05 0.00134212739339 0)
(1.42124372794e-05 0.00134649341406 0)
(3.10215615578e-07 0.000114828036064 -3.37981412868e-30)
(8.21557124786e-06 0.000324727232477 -5.18047891984e-30)
(2.14346589369e-05 0.000516343465855 0)
(3.81014351945e-05 0.000686922656119 0)
(5.52280546858e-05 0.000835450643168 0)
(7.06394149354e-05 0.000962074982061 0)
(8.25757625226e-05 0.00106787056012 0)
(8.98530530748e-05 0.00115456290376 0)
(9.1869004757e-05 0.00122424214789 0)
(8.85270223567e-05 0.00127909494181 0)
(8.01269847512e-05 0.0013212224305 0)
(6.7267601581e-05 0.00135250856779 0)
(5.0759673463e-05 0.00137453395435 0)
(3.15570178086e-05 0.00138852185485 0)
(1.07041452483e-05 0.00139530514855 0)
(1.77088332192e-07 0.000108889679945 -3.14730645415e-30)
(4.88003615023e-06 0.000308802498888 -3.088861124e-45)
(1.30877482882e-05 0.000493284751881 4.99988836539e-30)
(2.37708815842e-05 0.000660405579228 -1.54812171772e-29)
(3.51728796772e-05 0.00080918032434 -1.57308740679e-29)
(4.58696846726e-05 0.000939335756761 0)
(5.45981773855e-05 0.00105124214686 0)
(6.04043713889e-05 0.00114577734937 0)
(6.26885245133e-05 0.00122416583308 0)
(6.12012227641e-05 0.00128781353568 0)
(5.60077730539e-05 0.00133816567501 0)
(4.7439290561e-05 0.00137658819361 0)
(3.6038299244e-05 0.00140427503955 0)
(2.25056478792e-05 0.00142217881108 0)
(7.65115095209e-06 0.00143096150388 0)
(8.31595796688e-08 0.000105204130161 0)
(2.8799097217e-06 0.000298783000015 4.3362026389e-30)
(7.91498176367e-06 0.000478491920527 9.08949801729e-30)
(1.46382936716e-05 0.000642963955301 -9.34934376964e-30)
(2.20187424146e-05 0.000791377865087 -1.42893133876e-29)
(2.91575489937e-05 0.000923349266301 0)
(3.52025037435e-05 0.00103891897291 0)
(3.94579655005e-05 0.00113849096097 0)
(4.14350004778e-05 0.00122274616272 0)
(4.08724047679e-05 0.00129254396892 -4.79868687453e-30)
(3.77341124187e-05 0.00134882444123 -1.43190951047e-29)
(3.21901952548e-05 0.00139251769268 -1.89919759059e-29)
(2.4586899097e-05 0.00142446532931 -9.45320104484e-30)
(1.5410873407e-05 0.00144535606147 0)
(5.2490463847e-06 0.00145567711818 0)
(4.34459931965e-08 0.000103128442978 0)
(1.67418490252e-06 0.000292893785854 0)
(4.70102325612e-06 0.00046955097548 4.37412690659e-30)
(8.83106707783e-06 0.000632147772935 4.4707773396e-30)
(1.3472812251e-05 0.000780050327739 0)
(1.80751089871e-05 0.000912891343922 0)
(2.20863615836e-05 0.00103057661497 0)
(2.50294617568e-05 0.00113325890419 0)
(2.65437862924e-05 0.00122129333482 -9.31907098275e-30)
(2.64105806401e-05 0.00129518018427 -1.39893696294e-29)
(2.45625401885e-05 0.00135550189626 -2.3312854005e-29)
(2.10798814286e-05 0.00140285978683 -2.79590444918e-29)
(1.61753656351e-05 0.0014378150925 -9.31296842312e-30)
(1.01727770884e-05 0.00146083726545 0)
(3.47160433454e-06 0.00147226650181 0)
(1.7525504898e-08 0.000101921097706 0)
(9.41940902181e-07 0.00028939106632 0)
(2.71449201765e-06 0.000464131402305 0)
(5.1867577674e-06 0.000625463426543 0)
(8.02586684183e-06 0.000772904861061 0)
(1.09021217609e-05 0.000906140256584 0)
(1.34700337531e-05 0.00102502907837 0)
(1.54166677017e-05 0.0011295948573 0)
(1.64926626033e-05 0.00122000220717 -1.81328247129e-29)
(1.65341603149e-05 0.00129652407914 -1.81948826164e-29)
(1.54748346912e-05 0.00135950271488 -9.12032298352e-30)
(1.33482804438e-05 0.00140930793894 -1.82731330039e-29)
(1.02809503535e-05 0.00144629638458 -9.14675392937e-30)
(6.48703431078e-06 0.0014707737424 0)
(2.21535814468e-06 0.00148299027475 0)
(5.85773083116e-09 0.000101275502482 0)
(5.06457579233e-07 0.000287427231656 0)
(1.50732403893e-06 0.00046100611939 0)
(2.93753822831e-06 0.00062151889818 0)
(4.61742498204e-06 0.000768598468681 0)
(6.35557564143e-06 0.000901985150703 0)
(7.94228885507e-06 0.001021532124 0)
(9.17971894036e-06 0.00112720056266 0)
(9.90328087439e-06 0.00121904751041 -8.91704413857e-30)
(9.99826942399e-06 0.00129720713055 -8.95335714218e-30)
(9.4104892942e-06 0.00136186693262 0)
(8.15036723132e-06 0.00141324106389 -9.0070804115e-30)
(6.28821331277e-06 0.00145154290538 -9.02668427567e-30)
(3.9974925547e-06 0.00147695283422 0)
(1.27457317298e-06 0.00148966171537 0)
(-4.26450926781e-10 0.000100941866189 0)
(2.52315002941e-07 0.000286358785223 0)
(7.89744739751e-07 0.000459253230362 0)
(1.5820494505e-06 0.000619251922651 0)
(2.53792740262e-06 0.000766069030072 0)
(3.55034661746e-06 0.000899491864044 0)
(4.49639729613e-06 0.00101938252917 0)
(5.25545454353e-06 0.0011256747722 0)
(5.72328278856e-06 0.00121836703682 0)
(5.82372338172e-06 0.00129751149264 0)
(5.51689492445e-06 0.00136319958025 0)
(4.80306481117e-06 0.00141554510919 0)
(3.70850216015e-06 0.00145466614787 0)
(2.42062608591e-06 0.00148065918435 0)
(6.49220520341e-07 0.0014936308985 0)
(-2.73754163819e-09 0.000100791981581 -6.0558613625e-30)
(1.10263218065e-07 0.000285826207221 -8.44314305397e-30)
(3.77475283501e-07 0.000458334571215 0)
(7.89934170052e-07 0.000618021407715 0)
(1.30613434862e-06 0.00076465664789 0)
(1.86941292763e-06 0.000898063711863 0)
(2.41080451182e-06 0.00101811787485 0)
(2.85963084531e-06 0.00112474316825 0)
(3.15246697204e-06 0.00121790778284 0)
(3.24092474044e-06 0.00129761740254 0)
(3.09746018359e-06 0.00136390649196 0)
(2.71855184769e-06 0.0014168280301 0)
(2.10708868039e-06 0.00145644257783 0)
(1.41909214998e-06 0.0014828070679 0)
(3.31349434577e-07 0.0014959488884 0)
(-3.47887934758e-09 0.000100738037372 -6.09594914366e-30)
(3.4651878182e-08 0.000285589797218 -1.69653706896e-29)
(1.50326066734e-07 0.000457891475746 -1.70572686126e-29)
(3.44480913805e-07 0.000617395790064 -8.56858665425e-30)
(6.02317129293e-07 0.000763909544949 0)
(8.96190943532e-07 0.00089728229283 0)
(1.18953634792e-06 0.00101740201426 0)
(1.44274106309e-06 0.0011241914966 0)
(1.61865786379e-06 0.00121760468507 0)
(1.68757247531e-06 0.00129762234189 0)
(1.63110850381e-06 0.00136424679791 8.76604367042e-30)
(1.44475581871e-06 0.00141749599118 8.78161851625e-30)
(1.12428260889e-06 0.00145739735584 8.79135333612e-30)
(7.71841970214e-07 0.00148398676577 8.81777637705e-30)
(1.70831933998e-07 0.00149726081655 0)
(-3.23929999041e-09 0.000100733611325 0)
(-2.24997551412e-09 0.000285513929416 -8.51688200401e-30)
(3.28941988539e-08 0.000457714226378 -2.56579801738e-29)
(1.07258810358e-07 0.000617116620236 -1.71681261512e-29)
(2.19253398795e-07 0.000763551972366 0)
(3.57342056261e-07 0.000896888111314 0)
(5.03748629191e-07 0.0010170236755 0)
(6.37551431333e-07 0.0011238838675 0)
(7.37953102163e-07 0.00121741709285 0)
(7.87358114513e-07 0.00129759172871 0)
(7.73915636157e-07 0.00136439267321 8.73804947188e-30)
(6.93430607297e-07 0.001417817592 8.75034629865e-30)
(5.41583450505e-07 0.00145787286558 8.75751421546e-30)
(3.75633658972e-07 0.00148457422356 8.7797743809e-30)
(7.85419261255e-08 0.00149790401267 0)
(-2.81266227214e-09 0.00010075015256 0)
(-1.73687730684e-08 0.000285516187094 0)
(-2.16816010829e-08 0.000457673729097 -1.71433005181e-29)
(-8.7206462151e-09 0.000617022730073 -1.71979859237e-29)
(2.55698876215e-08 0.000763409248835 0)
(7.81405026132e-08 0.000896713143267 0)
(1.41535901556e-07 0.00101684133623 -8.66207038362e-30)
(2.05721471674e-07 0.0011237227333 0)
(2.59868167284e-07 0.00121730462151 8.69492547671e-30)
(2.94115764597e-07 0.00129754997201 0)
(3.01165535524e-07 0.00136443493099 0)
(2.77612567095e-07 0.00141794634953 0)
(2.20344394916e-07 0.00145807918913 -8.73627998328e-30)
(1.57910636659e-07 0.00148483713473 -8.75217862438e-30)
(2.72110133286e-08 0.00149820403369 0)
(-2.18964937262e-09 0.00010077328309 0)
(-2.14322795685e-08 0.000285551704523 0)
(-4.15963138234e-08 0.000457698174869 4.5749723969e-45)
(-5.65871536322e-08 0.000617021623275 1.28199181266e-45)
(-6.05713882671e-08 0.000763377792868 0)
(-5.24050766896e-08 0.000896655782483 0)
(-3.35509423887e-08 0.00101676833108 -8.66452507543e-30)
(-7.83800407602e-09 0.00112364710634 0)
(1.92889534026e-08 0.00121724021305 8.69060000948e-30)
(4.24899955509e-08 0.00129750911064 0)
(5.73764347388e-08 0.00136442617446 0)
(6.14217863244e-08 0.00141797283832 0)
(5.27884771896e-08 0.00145813813341 -8.72215567949e-30)
(4.14691292236e-08 0.00148491871886 -8.73250598694e-30)
(5.35995615811e-09 0.00149830032038 0)
(-1.65178732993e-09 0.000100796216656 -6.178694141e-30)
(-2.0348512739e-08 0.000285595887516 -8.57708059336e-30)
(-4.44663663572e-08 0.000457745420043 8.60132438071e-30)
(-6.90450621236e-08 0.000617060169332 8.62168320296e-30)
(-8.82065899885e-08 0.000763401165024 0)
(-9.97581238064e-08 0.000896659355702 0)
(-1.02614834193e-07 0.00101675180682 0)
(-9.72223966151e-08 0.0011236166663 0)
(-8.56227328529e-08 0.00121720361236 0)
(-7.02283319017e-08 0.00129747343713 0)
(-5.38094055282e-08 0.0013643968407 2.61141118512e-29)
(-3.82527232558e-08 0.00141795267325 2.61305054209e-29)
(-2.45968147948e-08 0.00145812763054 0)
(-1.33680963333e-08 0.00148491505869 8.71968124579e-30)
(-1.789947246e-09 0.00149830543045 8.53582113472e-30)
(-1.19862559771e-09 0.000100816060358 -6.18643960149e-30)
(-1.71689970531e-08 0.000285638245002 -8.58705294537e-30)
(-3.9831741938e-08 0.000457796547924 0)
(-6.52293988481e-08 0.000617108961036 0)
(-8.80655872039e-08 0.000763439450055 0)
(-1.05620253049e-07 0.000896684379707 0)
(-1.16653315784e-07 0.00101676339862 0)
(-1.20703727378e-07 0.00112361357119 0)
(-1.17586838987e-07 0.0012171859869 0)
(-1.08192272961e-07 0.00129744526419 0)
(-9.39736404647e-08 0.00136436227377 2.61040928984e-29)
(-7.58976034537e-08 0.00141791451576 2.61164507203e-29)
(-5.4818939471e-08 0.00145808785515 0)
(-3.48784838052e-08 0.00148487440942 8.71053283739e-30)
(-7.30121256033e-09 0.00149826907166 8.36127121568e-30)
(-8.18782353459e-10 0.000100831797087 0)
(-1.33181362884e-08 0.000285673901884 -3.43751502705e-29)
(-3.21040319438e-08 0.000457842356839 -3.44662914539e-29)
(-5.42897240803e-08 0.000617156412995 0)
(-7.57847094901e-08 0.000763481645246 0)
(-9.40073858377e-08 0.00089671626331 0)
(-1.07086669177e-07 0.00101678206702 0)
(-1.1418919448e-07 0.00112361834548 0)
(-1.14799255472e-07 0.00121717870056 0)
(-1.09601506285e-07 0.0012974263554 -3.47806218309e-29)
(-9.837049999e-08 0.00136433192211 -3.47990241345e-29)
(-8.20154092607e-08 0.00141787526694 -3.48122652815e-29)
(-6.10214738939e-08 0.00145804223641 -3.48207817162e-29)
(-3.91140421567e-08 0.00148482441328 3.48241855707e-29)
(-1.22458471062e-08 0.00149821842482 3.34342135441e-29)
(-5.46018515564e-10 0.000100843470662 0)
(-9.81193895375e-09 0.000285701512665 -3.43924422202e-29)
(-2.4313518613e-08 0.000457879215637 -3.44827800511e-29)
(-4.20186568718e-08 0.000617196247858 0)
(-5.9893021414e-08 0.000763519065008 0)
(-7.58687669628e-08 0.000896747128286 0)
(-8.82980766814e-08 0.00101680355181 0)
(-9.60965254512e-08 0.00112362886604 0)
(-9.87648886602e-08 0.00121717699482 0)
(-9.55315374243e-08 0.00129741221617 -3.47809165845e-29)
(-8.69490261028e-08 0.00136430685826 -3.47966371576e-29)
(-7.35344198066e-08 0.00141784078797 -5.22116644426e-29)
(-5.54839513384e-08 0.00145800027344 -5.22226590444e-29)
(-3.53674069595e-08 0.00148477687789 1.74085906764e-29)
(-1.32112734693e-08 0.00149816720356 1.67107724467e-29)
(-3.53232482304e-10 0.000100851832883 0)
(-6.95562678355e-09 0.0002857219372 0)
(-1.76203637758e-08 0.000457907251079 0)
(-3.0967049864e-08 0.000617227448596 0)
(-4.48251016379e-08 0.00076354936891 0)
(-5.76106089013e-08 0.00089677311611 0)
(-6.79619290352e-08 0.00101682261165 3.47085346414e-29)
(-7.48649593148e-08 0.00112363925063 -5.07850920986e-48)
(-7.76649670681e-08 0.00121717763589 -3.4763352764e-29)
(-7.59651324487e-08 0.00129740270973 0)
(-6.97789595607e-08 0.00136428773327 0)
(-5.94882502882e-08 0.00141781314009 -5.22091097951e-29)
(-4.51941314506e-08 0.00145796561872 -5.22187798615e-29)
(-2.84908781725e-08 0.00148473694656 -1.74072113427e-29)
(-1.18351726465e-08 0.00149812357208 -1.67068394813e-29)
(-2.2232830857e-10 0.000100857604166 0)
(-4.76292306969e-09 0.000285736426091 0)
(-1.2294452185e-08 0.000457927584379 0)
(-2.19062103645e-08 0.000617250583295 0)
(-3.20978261001e-08 0.000763572383638 0)
(-4.17127531346e-08 0.000896793408469 0)
(-4.97045317972e-08 0.00101683804646 3.47131246102e-29)
(-5.52393652617e-08 0.00112364824799 0)
(-5.77302700426e-08 0.00121717919865 -3.47660295946e-29)
(-5.68386434958e-08 0.00129739640837 0)
(-5.24971876702e-08 0.00136427375093 1.73984234079e-29)
(-4.49397510276e-08 0.00141779220322 -1.74028442991e-29)
(-3.42337337041e-08 0.00145793888237 -3.48114265728e-29)
(-2.13224238463e-08 0.0014847058941 0)
(-9.46793390396e-09 0.00149808965245 0)
(-1.34646268699e-10 0.000100861461763 0)
(-3.15325397013e-09 0.000285746348572 0)
(-8.28243134842e-09 0.000457941768854 0)
(-1.49372655077e-08 0.000617267005705 0)
(-2.21130798248e-08 0.000763589010322 0)
(-2.89981411711e-08 0.000896808348347 0)
(-3.48282770237e-08 0.00101684967717 0)
(-3.89695951131e-08 0.00112365530948 0)
(-4.09545525472e-08 0.00121718084808 0)
(-4.05002799871e-08 0.001297392244 0)
(-3.75260329708e-08 0.0013642638329 1.73987812418e-29)
(-3.21804401781e-08 0.00141777702334 1.74029217961e-29)
(-2.45218706391e-08 0.00145791930817 0)
(-1.50855402387e-08 0.00148468312967 0)
(-7.0422006107e-09 0.00149806497759 0)
(-7.75679894951e-11 0.000100863950389 0)
(-2.01196654377e-09 0.000285752904291 0)
(-5.37824699371e-09 0.000457951301932 0)
(-9.81312648777e-09 0.000617278212723 0)
(-1.46661708465e-08 0.000763600524452 0)
(-1.93880500268e-08 0.000896818850609 0)
(-2.34451697671e-08 0.00101685799683 0)
(-2.6380315066e-08 0.00112366050442 0)
(-2.78457931767e-08 0.00121718226393 0)
(-2.76239601965e-08 0.00129738954906 0)
(-2.56425748536e-08 0.00136425703537 0)
(-2.19980786843e-08 0.00141776646176 0)
(-1.67462249309e-08 0.0014579056227 0)
(-1.01746024903e-08 0.0014846672456 0)
(-4.9510009911e-09 0.00149804792777 0)
(-4.1699890161e-11 0.000100865491951 0)
(-1.22969483643e-09 0.000285757071286 0)
(-3.35147897237e-09 0.000457957465941 0)
(-6.19038758634e-09 0.000617285564104 0)
(-9.34183043237e-09 0.000763608176453 0)
(-1.24466041371e-08 0.00089682591779 0)
(-1.5146881239e-08 0.00101686367078 0)
(-1.7129359467e-08 0.00112366411788 0)
(-1.81483590579e-08 0.00121718334149 0)
(-1.80461057192e-08 0.00129738784041 0)
(-1.67676882989e-08 0.00136425253231 1.73994477886e-29)
(-1.43771771646e-08 0.00141775939882 1.740332159e-29)
(-1.09243366138e-08 0.00145789645795 0)
(-6.5503356353e-09 0.00148465665484 0)
(-3.31718335351e-09 0.00149803668599 0)
(-1.98503360481e-11 0.000100866399862 -1.23981893084e-29)
(-7.10798078871e-10 0.000285759602094 -1.7209201646e-29)
(-1.98508645738e-09 0.000457961281393 0)
(-3.72069853206e-09 0.000617290184196 0)
(-5.67588486205e-09 0.000763613048133 0)
(-7.62691965827e-09 0.000896830469963 0)
(-9.34393671034e-09 0.00101686736863 0)
(-1.06198561196e-08 0.00112366651054 0)
(-1.12905055299e-08 0.00121718410171 0)
(-1.12493234953e-08 0.00129738679192 0)
(-1.04569935899e-08 0.00136424966599 1.73996858248e-29)
(-8.95507670798e-09 0.00141775487414 1.74035137081e-29)
(-6.78697688578e-09 0.00145789059078 0)
(-4.00824890596e-09 0.00148464991507 0)
(-2.11966738918e-09 0.00149802961988 0)
(-7.11608737353e-12 0.000100866898344 -1.23982056645e-29)
(-3.79218570207e-10 0.000285761050365 -1.72093025683e-29)
(-1.09658758574e-09 0.00045796351809 -1.72550197302e-29)
(-2.09618233666e-09 0.000617292941532 -1.72910600125e-29)
(-3.24364375446e-09 0.000763615998221 0)
(-4.40514793475e-09 0.000896833260572 0)
(-5.4403589182e-09 0.00101686966137 0)
(-6.21910617044e-09 0.00112366801537 0)
(-6.63709183409e-09 0.00121718460406 0)
(-6.62522305813e-09 0.00129738617598 0)
(-6.15822064485e-09 0.00136424792546 0)
(-5.26373461993e-09 0.00141775211464 0)
(-3.97537830215e-09 0.00145788702193 0)
(-2.30306137768e-09 0.00148464584775 0)
(-1.28542689545e-09 0.00149802541811 0)
(-3.59381775024e-13 0.000100867142081 0)
(-1.75426230687e-10 0.000285761809545 -1.72093055275e-29)
(-5.42112925093e-10 0.000457964733683 -5.17652319705e-29)
(-1.07053150323e-09 0.00061729447771 -3.45822987986e-29)
(-1.69306885641e-09 0.000763617672861 0)
(-2.33624518174e-09 0.000896834868974 0)
(-2.91817724779e-09 0.00101687100021 0)
(-3.36234639744e-09 0.00112366890744 0)
(-3.60602672778e-09 0.00121718491708 0)
(-3.60748926934e-09 0.00129738583784 0)
(-3.35208506684e-09 0.00136424693278 1.73999985936e-29)
(-2.85635571128e-09 0.00141775053567 1.74038033622e-29)
(-2.14608060451e-09 0.00145788498926 1.7406018937e-29)
(-1.20817078017e-09 0.00148464355629 1.74070755629e-29)
(-7.29564124849e-10 0.00149802309721 0)
(2.76528702717e-12 0.000100867234921 0)
(-5.72891588894e-11 0.000285762149329 -1.72092627775e-29)
(-2.11849091541e-10 0.000457965315339 -6.90202796526e-29)
(-4.51494476941e-10 0.000617295244643 -5.18735049092e-29)
(-7.48308867993e-10 0.000763618534445 0)
(-1.06489340221e-09 0.000896835715149 0)
(-1.35850923968e-09 0.00101687171778 0)
(-1.58792456082e-09 0.00112366939467 0)
(-1.71789248997e-09 0.00121718509819 0)
(-1.72456972917e-09 0.00129738567127 0)
(-1.60019065818e-09 0.00136424641848 1.74000915556e-29)
(-1.35561569163e-09 0.00141774971479 1.7403901729e-29)
(-1.00973057702e-09 0.00145788394092 1.74061144861e-29)
(-5.39136973742e-10 0.00148464239522 1.74071857e-29)
(-3.74762026304e-10 0.0014980219546 0)
(4.08584345591e-12 0.000100867244928 0)
(5.70479725542e-12 0.000285762247929 0)
(-2.8971395512e-11 0.000457965524438 -5.1765107868e-29)
(-1.00906119612e-10 0.0006172955514 -5.187346003e-29)
(-2.05101072774e-10 0.000763618902409 0)
(-3.26557234715e-10 0.000896836093148 0)
(-4.46099715263e-10 0.00101687204937 0)
(-5.43241175078e-10 0.00112366962742 0)
(-6.00737038264e-10 0.0012171851922 0)
(-6.07747270032e-10 0.00129738560578 0)
(-5.60746590171e-10 0.00136424619487 0)
(-4.6573668818e-10 0.00141774935735 0)
(-3.35372540319e-10 0.00145788349347 0)
(-1.51019138874e-10 0.00148464191946 0)
(-1.4785121603e-10 0.00149802151644 0)
(4.27189396286e-12 0.000100867214538 0)
(3.51949646384e-11 0.000285762219327 -1.714126881e-29)
(6.2789416885e-11 0.000457965529146 -5.17649812841e-29)
(7.98622695052e-11 0.00061729559946 -3.45822474846e-29)
(8.10700254322e-11 0.000763618987846 0)
(6.93583925849e-11 0.000896836198894 0)
(4.95938536533e-11 0.00101687215288 0)
(2.89241991584e-11 0.00112366970687 0)
(1.37238474996e-11 0.00121718523037 0)
(8.37743345688e-12 0.00129738559455 0)
(1.43960598957e-11 0.00136424613628 1.7400197187e-29)
(2.79646122793e-11 0.0014177492642 1.74040255328e-29)
(3.97196282361e-11 0.00145788338789 1.74062473363e-29)
(5.77197591611e-11 0.00148464183243 1.74073340296e-29)
(4.12940283929e-12 0.00149802148779 0)
(3.63272808019e-12 0.0001008671677 0)
(4.54883167521e-11 0.000285762132087 -1.72090931543e-29)
(9.99816447964e-11 0.00045796543398 -5.17648519565e-29)
(1.5859374508e-10 0.000617295516136 -3.45821809704e-29)
(2.10900571861e-10 0.000763618925957 0)
(2.53424533524e-10 0.000896836159823 0)
(2.84598135176e-10 0.00101687213344 0)
(3.04813938498e-10 0.00112366970211 0)
(3.14151306146e-10 0.00121718523568 0)
(3.10345789638e-10 0.00129738560761 0)
(2.92900907265e-10 0.00136424616151 1.74002217182e-29)
(2.62676819907e-10 0.00141774930755 1.74040573332e-29)
(2.14180211205e-10 0.00145788345997 1.74062800106e-29)
(1.53175653625e-10 0.00148464194684 1.74073593365e-29)
(6.24744154646e-11 0.00149802167124 0)
(3.07216016681e-12 0.000100867118214 0)
(4.55579471748e-11 0.000285762026821 0)
(1.07016092202e-10 0.000457965301843 -1.72549157856e-29)
(1.79143826447e-10 0.000617295378897 -1.72910608951e-29)
(2.50414820173e-10 0.000763618799186 0)
(3.14478211473e-10 0.00089683605339 0)
(3.66136991371e-10 0.00101687205216 0)
(4.02079246242e-10 0.00112366964972 0)
(4.19955698481e-10 0.00121718522203 0)
(4.16006488136e-10 0.00129738564039 0)
(3.903774344e-10 0.00136424623559 5.22007114201e-29)
(3.42909320162e-10 0.00141774942045 0)
(2.68853302275e-10 0.00145788361548 -5.22189245016e-29)
(1.80989393917e-10 0.00148464214596 0)
(6.42209643683e-11 0.0014980219169 0)
(2.60153678069e-12 0.000100867073132 0)
(4.05389685887e-11 0.0002857619245 0)
(9.81667244894e-11 0.000457965166645 0)
(1.69299082817e-10 0.000617295231243 0)
(2.42065345666e-10 0.000763618656469 0)
(3.09289348433e-10 0.000896835929937 0)
(3.65236851474e-10 0.00101687196047 0)
(4.03008039842e-10 0.00112366959892 0)
(4.21207478367e-10 0.00121718521042 0)
(4.19029306479e-10 0.00129738566763 0)
(3.93188139459e-10 0.00136424631011 1.74002535139e-29)
(3.42885690445e-10 0.00141774954946 -3.4808200051e-29)
(2.64845013207e-10 0.00145788379293 -5.22190036165e-29)
(1.74595309916e-10 0.00148464236378 0)
(5.73450792293e-11 0.00149802216103 0)
(1.94996098019e-12 0.000100867035 0)
(3.36041762583e-11 0.00028576183476 0)
(8.30099457117e-11 0.000457965044437 0)
(1.45541406574e-10 0.000617295094716 0)
(2.11095773965e-10 0.000763618520891 0)
(2.72413007788e-10 0.000896835809345 0)
(3.24429599646e-10 0.00101687186615 0)
(3.61798574621e-10 0.0011236695391 0)
(3.80874296173e-10 0.00121718519341 0)
(3.78520377101e-10 0.0012973856989 0)
(3.53068561329e-10 0.00136424639067 -3.4800525181e-29)
(3.05743221333e-10 0.00141774967653 -3.48082254542e-29)
(2.3433457404e-10 0.0014578839619 0)
(1.53218693308e-10 0.00148464256588 0)
(4.80367797514e-11 0.00149802238157 0)
(1.50110512001e-12 0.000100867004736 0)
(2.64109453937e-11 0.000285761761346 0)
(6.66805558666e-11 0.000457964942574 -1.72548441535e-29)
(1.18206566089e-10 0.000617294978785 -1.72909986966e-29)
(1.73027997594e-10 0.000763618404064 0)
(2.25104913267e-10 0.000896835704053 0)
(2.69658478921e-10 0.00101687178292 0)
(3.0187594742e-10 0.0011236694871 0)
(3.18121947122e-10 0.00121718517865 0)
(3.16848423235e-10 0.00129738572525 0)
(2.95788799992e-10 0.00136424645995 5.22007930922e-29)
(2.55590562553e-10 0.00141774978709 5.2212362626e-29)
(1.95153861262e-10 0.00145788410783 0)
(1.27249763708e-10 0.00148464273839 0)
(3.83855426374e-11 0.00149802256789 0)
(8.75021390085e-13 0.000100866981401 0)
(2.00992447233e-11 0.000285761703707 0)
(5.1858251549e-11 0.00045796486133 -3.45096680242e-29)
(9.23851052097e-11 0.000617294884899 -3.45819748581e-29)
(1.36059483976e-10 0.000763618308707 0)
(1.78060898075e-10 0.000896835617094 0)
(2.14464239648e-10 0.00101687171395 0)
(2.40880841057e-10 0.00112366944332 0)
(2.54730915487e-10 0.0012171851661 0)
(2.54404115116e-10 0.00129738574694 0)
(2.37494092027e-10 0.00136424651692 1.74002643234e-29)
(2.05008994855e-10 0.00141774987786 1.74041253806e-29)
(1.5620512529e-10 0.00145788422733 0)
(1.02053713823e-10 0.00148464287876 0)
(3.06505292357e-11 0.00149802271892 0)
(7.4108529516e-13 0.000100866963642 0)
(1.5177470707e-11 0.000285761659646 0)
(3.90807702761e-11 0.000457964798512 -5.17644853487e-29)
(7.01075399231e-11 0.00061729481154 -5.18729394783e-29)
(1.03987256831e-10 0.000763618233703 0)
(1.36972371765e-10 0.000896835548371 0)
(1.6547628847e-10 0.00101687165895 0)
(1.86683180609e-10 0.00112366940802 0)
(1.98085865856e-10 0.00121718515569 0)
(1.97973506258e-10 0.00129738576406 0)
(1.85167338544e-10 0.00136424656231 -3.48005322522e-29)
(1.59764317198e-10 0.00141774994966 -3.48082543092e-29)
(1.21315033929e-10 0.00145788432197 0)
(7.9536009256e-11 0.00148464298984 0)
(2.37848345879e-11 0.00149802283817 0)
(5.08967111986e-13 0.000100866950852 0)
(1.12528432836e-11 0.000285761627089 0)
(2.90841908156e-11 0.000457964751596 -3.45096457762e-29)
(5.23721451488e-11 0.00061729475638 -3.45819517735e-29)
(7.81841873995e-11 0.000763618176649 0)
(1.03302512676e-10 0.000896835495655 0)
(1.25427316999e-10 0.00101687161641 0)
(1.41988823626e-10 0.00112366938076 0)
(1.50994537559e-10 0.00121718514731 0)
(1.51030516313e-10 0.00129738577699 0)
(1.4088029399e-10 0.00136424659733 0)
(1.21710243003e-10 0.00141775000534 0)
(9.27078684914e-11 0.00145788439509 0)
(6.05492129229e-11 0.00148464307549 0)
(1.78871265524e-11 0.00149802293024 0)
(5.10425432385e-13 0.000100866941566 -4.95913451793e-29)
(8.07810058833e-12 0.000285761603283 -1.37671599174e-28)
(2.10035115742e-11 0.000457964716762 -6.90192766324e-29)
(3.86349409369e-11 0.000617294715293 0)
(5.80240791797e-11 0.000763618133879 0)
(7.72528073217e-11 0.000896835456037 0)
(9.36536758126e-11 0.00101687158418 0)
(1.05934390417e-10 0.00112366936004 0)
(1.12887447525e-10 0.00121718514077 0)
(1.13230645107e-10 0.00129738578655 -6.95775177931e-29)
(1.06272708239e-10 0.00136424662381 -6.9601082703e-29)
(9.17604610834e-11 0.00141775004768 -6.96165265975e-29)
(6.95142112097e-11 0.00145788445075 -6.96255080952e-29)
(4.58481693666e-11 0.00148464314065 6.96299091553e-29)
(1.4019635299e-11 0.00149802300022 6.6825142825e-29)
(3.39403361148e-13 0.000100866934902 -2.47956713982e-29)
(5.53636863671e-12 0.000285761585794 -1.03253684083e-28)
(1.49991239483e-11 0.000457964691398 -6.90192763646e-29)
(2.82706035547e-11 0.000617294684746 0)
(4.24737100798e-11 0.00076361810198 -3.46393466488e-29)
(5.65962338619e-11 0.00089683542625 -3.46850609619e-29)
(6.8982647713e-11 0.00101687155981 0)
(7.84153485014e-11 0.00112366934438 0)
(8.39076132008e-11 0.00121718513578 0)
(8.42692718537e-11 0.00129738579392 -6.95775215873e-29)
(7.90540199693e-11 0.00136424664367 -6.96010863474e-29)
(6.80577605508e-11 0.00141775007936 -6.9616530141e-29)
(5.15944054342e-11 0.0014578844926 -6.96255115742e-29)
(3.37759344622e-11 0.00148464318966 3.4814958132e-29)
(9.6181214391e-12 0.00149802305288 3.34125738558e-29)
(1.71913765091e-13 0.000100866930159 2.47956729546e-29)
(4.09737967662e-12 0.0002857615734 3.44178950898e-29)
(1.09007937271e-11 0.000457964673061 0)
(2.04111666792e-11 0.00061729466269 0)
(3.09210399598e-11 0.000763618078581 -3.46393439381e-29)
(4.11268493063e-11 0.000896835404322 -6.93701159737e-29)
(5.04652898756e-11 0.00101687154204 -3.47213989298e-29)
(5.76929605009e-11 0.00112366933262 0)
(6.16621963752e-11 0.00121718513216 0)
(6.21536678024e-11 0.00129738579937 0)
(5.84006886639e-11 0.00136424665851 0)