/*--------------------------------*- C++ -*----------------------------------*\
  =========                 |
  \\      /  F ield         | OpenFOAM: The Open Source CFD Toolbox
   \\    /   O peration     | Website:  https://openfoam.org
    \\  /    A nd           | Version:  dev
     \\/     M anipulation  |
\*---------------------------------------------------------------------------*/
FoamFile
{
    version     2.0;
    format      ascii;
    class       volScalarField;
    location    "0";
    object      moment.004.particles;
}
// * * * * * * * * * * * * * * * * * * * * * * * * * * * * * * * * * * * * * //

dimensions      [0 4 -4 0 0 0 0];

internalField   nonuniform List<scalar> 
120
(
0.0125
0.012711
0.0129237
0.0131382
0.0133545
0.0135725
0.0137923
0.0140139
0.0142371
0.0144622
0.0146891
0.0149177
0.0151481
0.0153803
0.0156142
0.0158499
0.0160873
0.0163266
0.0165675
0.0168103
0.0170548
0.017301
0.0175491
0.0177989
0.0180504
0.0183038
0.0185589
0.0188157
0.0190744
0.0193348
0.0195969
0.0198609
0.0201266
0.020394
0.0206633
0.0209343
0.021207
0.0214815
0.0217578
0.0220359
0.0223157
0.0225973
0.0228807
0.0231657
0.0234526
0.0237413
0.0240316
0.0243238
0.0246178
0.0249135
0.025211
0.0255102
0.0258112
0.026114
0.0264185
0.0267248
0.0270329
0.0273427
0.0276543
0.0279676
0.0282828
0.0285997
0.0289183
0.0292388
0.029561
0.0298849
0.0302106
0.0305381
0.0308673
0.0311984
0.0315312
0.0318657
0.032202
0.0325401
0.0328799
0.0332215
0.0335649
0.03391
0.0342569
0.0346056
0.034956
0.0353082
0.0356622
0.0360179
0.0363754
0.0367347
0.0370958
0.0374585
0.0378231
0.0381894
0.0385575
0.0389273
0.039299
0.0396723
0.0400475
0.0404244
0.0408031
0.0411835
0.0415658
0.0419497
0.0423355
0.042723
0.0431122
0.0435033
0.0438961
0.0442906
0.044687
0.0450851
0.045485
0.0458866
0.04629
0.0466952
0.0471021
0.0475108
0.0479213
0.0483334
0.0487474
0.0491632
0.0495807
0.05
)
;

boundaryField
{
    left
    {
        type            zeroGradient;
    }
    right
    {
        type            zeroGradient;
    }
    defaultFaces
    {
        type            empty;
    }
}


// ************************************************************************* //
