/*--------------------------------*- C++ -*----------------------------------*\
  =========                 |
  \\      /  F ield         | OpenFOAM: The Open Source CFD Toolbox
   \\    /   O peration     | Website:  https://openfoam.org
    \\  /    A nd           | Version:  7
     \\/     M anipulation  |
\*---------------------------------------------------------------------------*/
FoamFile
{
    version     2.0;
    format      ascii;
    class       surfaceScalarField;
    location    "0";
    object      rhoPhi;
}
// * * * * * * * * * * * * * * * * * * * * * * * * * * * * * * * * * * * * * //

dimensions      [1 0 -1 0 0 0 0];

internalField   nonuniform List<scalar> 
1930
(
0.0154736
0.0372764
0.00927878
0.00619475
0.00823799
0.00104079
0.00791102
0.00032696
0.00789013
2.08971e-05
0.00786901
2.1117e-05
0.00787439
-5.3757e-06
0.00787207
2.3152e-06
0.00787339
-1.31728e-06
0.00787296
4.34083e-07
0.00787319
-2.3343e-07
0.00787311
8.43958e-08
0.00787314
-3.7133e-08
0.00787313
1.31703e-08
0.00787314
-4.19071e-09
0.00787314
2.91192e-10
0.00787313
9.17183e-10
0.00787314
-1.71986e-09
0.00787313
1.63415e-09
0.00787314
-1.96559e-09
0.00787313
1.77464e-09
0.00787314
-1.93297e-09
0.00787314
1.85821e-09
0.00787314
-1.85624e-09
0.00787313
1.91375e-09
0.00787314
-1.80353e-09
0.00787313
1.91451e-09
0.00787314
-1.80806e-09
0.00787313
1.8479e-09
0.00787314
-1.87607e-09
0.00787313
1.72712e-09
0.00787314
-1.97944e-09
0.00787314
1.59225e-09
0.00787314
-2.07139e-09
0.00787314
1.49693e-09
0.00787314
-2.11035e-09
0.00787314
1.50621e-09
0.00787314
-2.13061e-09
0.00787314
1.77796e-09
0.00787314
-2.48131e-09
0.00787314
3.0687e-09
0.00787314
-4.95326e-09
0.00787313
9.16892e-09
0.00787315
-1.86233e-08
0.00787311
3.73583e-08
0.00787321
-9.57584e-08
0.00787306
1.37576e-07
0.00787368
-6.03648e-07
0.00787491
-1.23269e-06
5.93003e-06
0.0339924
0.056034
0.0253721
0.014815
0.022859
0.00355395
0.0221964
0.00098956
0.0220794
0.000137931
0.0220438
5.66407e-05
0.0220455
-7.05493e-06
0.0220436
4.25466e-06
0.0220449
-2.61525e-06
0.0220445
7.3246e-07
0.0220449
-4.76959e-07
0.0220448
1.58209e-07
0.0220448
-7.91119e-08
0.0220448
2.92549e-08
0.0220448
-1.1469e-08
0.0220448
3.58969e-09
0.0220448
-9.72768e-11
0.0220448
-7.41127e-10
0.0220448
1.7238e-09
0.0220448
-1.37699e-09
0.0220448
1.95216e-09
0.0220448
-1.51716e-09
0.0220448
1.90133e-09
0.0220448
-1.61119e-09
0.0220448
1.81381e-09
0.0220448
-1.66506e-09
0.0220448
1.77501e-09
0.0220448
-1.63519e-09
0.0220448
1.82683e-09
0.0220448
-1.51017e-09
0.0220448
1.96193e-09
0.0220448
-1.31985e-09
0.0220448
2.13299e-09
0.0220448
-1.13366e-09
0.0220448
2.26999e-09
0.0220448
-1.04725e-09
0.0220448
2.35659e-09
0.0220448
-1.23417e-09
0.0220448
2.64023e-09
0.0220448
-2.3369e-09
0.0220448
4.60268e-09
0.0220448
-7.51366e-09
0.0220448
1.52173e-08
0.0220448
-3.39e-08
0.0220448
6.26281e-08
0.0220449
-1.89934e-07
0.0220448
1.9179e-07
0.0220456
-1.37303e-06
0.0220459
-1.56393e-06
9.09263e-06
0.0455614
0.0632226
0.0385425
0.021834
0.0356343
0.00646215
0.0348698
0.0017541
0.0346864
0.000321276
0.0346462
9.68764e-05
0.034642
-2.78589e-06
0.034641
5.17142e-06
0.0346417
-3.24855e-06
0.0346417
7.29303e-07
0.0346418
-6.04666e-07
0.0346418
1.72683e-07
0.0346418
-9.77624e-08
0.0346418
3.45475e-08
0.0346418
-1.43489e-08
0.0346418
4.98732e-09
0.0346418
-4.99782e-10
0.0346418
-1.51459e-10
0.0346418
1.72046e-09
0.0346418
-9.49381e-10
0.0346418
1.93675e-09
0.0346418
-1.20332e-09
0.0346418
1.78023e-09
0.0346418
-1.41099e-09
0.0346418
1.60186e-09
0.0346418
-1.52391e-09
0.0346418
1.55326e-09
0.0346418
-1.45284e-09
0.0346418
1.70294e-09
0.0346418
-1.18436e-09
0.0346418
2.0202e-09
0.0346418
-7.9677e-10
0.0346418
2.39233e-09
0.0346418
-4.38831e-10
0.0346418
2.66658e-09
0.0346418
-2.90162e-10
0.0346418
2.77027e-09
0.0346418
-5.88535e-10
0.0346418
2.98245e-09
0.0346418
-2.06875e-09
0.0346418
5.0779e-09
0.0346418
-8.36527e-09
0.0346418
1.69926e-08
0.0346418
-4.05194e-08
0.0346418
6.56129e-08
0.0346419
-2.44621e-07
0.0346419
1.25144e-07
0.0346424
-1.82364e-06
0.0346419
-1.04232e-06
8.93709e-06
0.053143
0.0628296
0.0489201
0.0260568
0.046575
0.0088073
0.0458997
0.00242941
0.0457107
0.000510264
0.0456718
0.000135797
0.0456644
4.58456e-06
0.0456638
5.74456e-06
0.045664
-3.40144e-06
0.0456641
5.9818e-07
0.0456642
-6.56098e-07
0.0456642
1.57168e-07
0.0456642
-1.02861e-07
0.0456642
3.39813e-08
0.0456642
-1.48825e-08
0.0456642
5.29202e-09
0.0456642
-6.64403e-10
0.0456642
1.65588e-10
0.0456642
1.59255e-09
0.0456642
-6.42579e-10
0.0456642
1.78856e-09
0.0456642
-9.27694e-10
0.0456642
1.59398e-09
0.0456642
-1.17266e-09
0.0456642
1.38614e-09
0.0456642
-1.30358e-09
0.0456642
1.33929e-09
0.0456642
-1.21389e-09
0.0456642
1.52994e-09
0.0456642
-8.9071e-10
0.0456642
1.91796e-09
0.0456642
-4.30668e-10
0.0456642
2.36556e-09
0.0456642
-1.22165e-11
0.0456642
2.6898e-09
0.0456642
1.57557e-10
0.0456642
2.79455e-09
0.0456642
-1.75823e-10
0.0456642
2.95397e-09
0.0456642
-1.73996e-09
0.0456642
4.9648e-09
0.0456642
-8.18186e-09
0.0456642
1.64619e-08
0.0456642
-4.19416e-08
0.0456642
5.75861e-08
0.0456642
-2.70073e-07
0.0456643
3.08935e-08
0.0456644
-1.90288e-06
0.0456639
-5.7136e-07
7.98636e-06
0.0581213
0.0574581
0.0569727
0.0272055
0.0557127
0.0100674
0.0552892
0.0028529
0.0551482
0.000651143
0.05512
0.000164153
0.0551123
1.21997e-05
0.0551119
6.06744e-06
0.0551117
-3.19072e-06
0.0551119
4.31827e-07
0.0551119
-6.46451e-07
0.0551119
1.28035e-07
0.0551119
-9.8609e-08
0.0551119
3.01485e-08
0.0551119
-1.39535e-08
0.0551119
4.93642e-09
0.0551119
-6.78595e-10
0.0551119
2.96433e-10
0.0551119
1.4018e-09
0.0551119
-4.35736e-10
0.0551119
1.57365e-09
0.0551119
-7.04297e-10
0.0551119
1.38152e-09
0.0551119
-9.41422e-10
0.0551119
1.18008e-09
0.0551119
-1.06692e-09
0.0551119
1.1396e-09
0.0551119
-9.7548e-10
0.0551119
1.33327e-09
0.0551119
-6.5448e-10
0.0551119
1.72068e-09
0.0551119
-2.01772e-10
0.0551119
2.16459e-09
0.0551119
2.09125e-10
0.0551119
2.48492e-09
0.0551119
3.74831e-10
0.0551119
2.58214e-09
0.0551119
5.53092e-11
0.0551119
2.70374e-09
0.0551119
-1.41116e-09
0.0551119
4.49786e-09
0.0551119
-7.39089e-09
0.0551119
1.46107e-08
0.0551119
-3.9814e-08
0.0551119
4.50097e-08
0.0551119
-2.69812e-07
0.055112
-4.86567e-08
0.0551118
-1.75302e-06
0.0551116
-2.88883e-07
6.82189e-06
0.0613795
0.0488287
0.0631083
0.0254767
0.0631271
0.0100486
0.0630546
0.00292544
0.0630003
0.000705441
0.0629907
0.000173726
0.0629854
1.75404e-05
0.0629854
5.99495e-06
0.062985
-2.72734e-06
0.0629851
2.79672e-07
0.0629851
-5.84769e-07
0.0629851
9.53788e-08
0.0629851
-8.72537e-08
0.0629851
2.46239e-08
0.0629851
-1.20394e-08
0.0629851
4.17243e-09
0.0629851
-5.80147e-10
0.0629851
2.93921e-10
0.0629851
1.19128e-09
0.0629851
-3.1408e-10
0.0629851
1.33408e-09
0.0629851
-5.40804e-10
0.0629851
1.16619e-09
0.0629851
-7.45438e-10
0.0629851
9.90433e-10
0.0629851
-8.53406e-10
0.0629851
9.57096e-10
0.0629851
-7.71307e-10
0.0629851
1.13011e-09
0.0629851
-4.87764e-10
0.0629851
1.47276e-09
0.0629851
-8.9919e-11
0.0629851
1.86507e-09
0.0629851
2.72322e-10
0.0629851
2.14902e-09
0.0629851
4.19308e-10
0.0629851
2.23328e-09
0.0629851
1.44266e-10
0.0629851
2.3253e-09
0.0629851
-1.11254e-09
0.0629851
3.82149e-09
0.0629851
-6.2435e-09
0.0629851
1.20556e-08
0.0629851
-3.50405e-08
0.0629851
3.19375e-08
0.0629851
-2.46459e-07
0.0629851
-9.61911e-08
0.0629849
-1.47738e-06
0.0629847
-1.26644e-07
5.54462e-06
0.0634875
0.0380912
0.067654
0.0213102
0.0689132
0.00878937
0.0692208
0.00261789
0.069271
0.00065519
0.0692849
0.000159842
0.0692835
1.8936e-05
0.0692842
5.34973e-06
0.0692835
-2.1128e-06
0.0692836
1.62713e-07
0.0692835
-4.79355e-07
0.0692836
6.4985e-08
0.0692835
-7.03466e-08
0.0692835
1.84101e-08
0.0692835
-9.46573e-09
0.0692835
3.18537e-09
0.0692835
-4.20218e-10
0.0692835
2.20326e-10
0.0692835
9.59144e-10
0.0692835
-2.37375e-10
0.0692835
1.06827e-09
0.0692835
-4.0957e-10
0.0692835
9.35133e-10
0.0692835
-5.69754e-10
0.0692835
7.94488e-10
0.0692835
-6.5524e-10
0.0692835
7.66989e-10
0.0692835
-5.9031e-10
0.0692835
9.04006e-10
0.0692835
-3.66009e-10
0.0692835
1.17519e-09
0.0692835
-5.05365e-11
0.0692835
1.48836e-09
0.0692835
2.39462e-10
0.0692835
1.71732e-09
0.0692835
3.60356e-10
0.0692835
1.7861e-09
0.0692835
1.48279e-10
0.0692835
1.85358e-09
0.0692835
-8.3184e-10
0.0692835
3.00143e-09
0.0692835
-4.86202e-09
0.0692835
9.16417e-09
0.0692835
-2.8189e-08
0.0692835
2.06002e-08
0.0692835
-2.03327e-07
0.0692835
-1.08708e-07
0.0692832
-1.13782e-06
0.0692831
-3.81315e-08
4.19513e-06
0.064813
0.0260281
0.0708592
0.015264
0.073162
0.00648652
0.0738152
0.00196482
0.0739665
0.000503804
0.0740038
0.000122519
0.0740069
1.58724e-05
0.0740082
4.05384e-06
0.0740075
-1.42555e-06
0.0740076
8.33444e-08
0.0740074
-3.394e-07
0.0740075
3.92323e-08
0.0740074
-4.91983e-08
0.0740075
1.20616e-08
0.0740075
-6.45206e-09
0.0740075
2.08923e-09
0.0740075
-2.29778e-10
0.0740075
1.13725e-10
0.0740075
7.04802e-10
0.0740075
-1.81739e-10
0.0740075
7.77226e-10
0.0740075
-2.92875e-10
0.0740075
6.83354e-10
0.0740075
-4.03516e-10
0.0740075
5.81347e-10
0.0740075
-4.65387e-10
0.0740075
5.58463e-10
0.0740075
-4.225e-10
0.0740075
6.50244e-10
0.0740075
-2.70184e-10
0.0740075
8.34942e-10
0.0740075
-5.15248e-11
0.0740075
1.0543e-09
0.0740075
1.53106e-10
0.0740075
1.21738e-09
0.0740075
2.43144e-10
0.0740075
1.2691e-09
0.0740075
1.04456e-10
0.0740075
1.31375e-09
0.0740075
-5.6078e-10
0.0740075
2.08438e-09
0.0740075
-3.32727e-09
0.0740075
6.14498e-09
0.0740074
-1.97357e-08
0.0740075
1.17934e-08
0.0740074
-1.44587e-07
0.0740074
-9.07975e-08
0.074007
-7.68281e-07
0.074007
1.00788e-09
2.80836e-06
0.0655863
0.0131919
0.0729
0.00795022
0.0759494
0.00343711
0.0768624
0.00105187
0.0770928
0.000273449
0.0771488
6.64478e-05
0.0771556
9.01886e-06
0.0771575
2.19056e-06
0.0771568
-7.1384e-07
0.0771569
3.32144e-08
0.0771567
-1.75428e-07
0.0771567
1.79613e-08
0.0771567
-2.51287e-08
0.0771567
5.79974e-09
0.0771567
-3.16112e-09
0.0771567
9.4234e-10
0.0771567
-2.19634e-11
0.0771567
-1.03558e-11
0.0771567
4.38797e-10
0.0771567
-1.37617e-10
0.0771567
4.7059e-10
0.0771567
-1.86978e-10
0.0771567
4.18716e-10
0.0771567
-2.44678e-10
0.0771567
3.56476e-10
0.0771567
-2.84011e-10
0.0771567
3.36237e-10
0.0771567
-2.66952e-10
0.0771567
3.7698e-10
0.0771567
-1.92609e-10
0.0771567
4.6854e-10
0.0771567
-7.89016e-11
0.0771567
5.85315e-10
0.0771567
3.3729e-11
0.0771567
6.77537e-10
0.0771567
9.10222e-11
0.0771567
7.11637e-10
0.0771567
3.1812e-11
0.0771567
7.34268e-10
0.0771567
-2.97355e-10
0.0771567
1.11295e-09
0.0771567
-1.70185e-09
0.0771567
3.10521e-09
0.0771567
-1.01745e-08
0.0771567
5.25554e-09
0.0771567
-7.50797e-08
0.0771566
-5.10502e-08
0.0771563
-3.86273e-07
0.0771563
8.33841e-09
1.40647e-06
0.0659419
9.34756e-10
0.0738921
-3.97347e-09
0.0773292
5.18893e-09
0.0783811
-5.56373e-09
0.0786546
5.65153e-09
0.078721
-4.19206e-09
0.07873
3.47934e-09
0.0787322
-2.53573e-09
0.0787315
1.81584e-09
0.0787315
-1.28716e-09
0.0787314
8.64808e-10
0.0787314
-6.4704e-10
0.0787314
4.35387e-10
0.0787314
-3.619e-10
0.0787314
2.63113e-10
0.0787314
-2.22383e-10
0.0787314
1.93475e-10
0.0787314
-1.42383e-10
0.0787314
1.67913e-10
0.0787314
-1.00126e-10
0.0787314
1.57213e-10
0.0787314
-8.81542e-11
0.0787314
1.46226e-10
0.0787314
-9.19621e-11
0.0787314
1.2841e-10
0.0787314
-1.07161e-10
0.0787314
1.08219e-10
0.0787314
-1.19442e-10
0.0787314
9.50293e-11
0.0787314
-1.24506e-10
0.0787314
9.14333e-11
0.0787314
-1.19615e-10
0.0787314
1.01112e-10
0.0787314
-1.0232e-10
0.0787314
1.20143e-10
0.0787314
-7.88216e-11
0.0787314
1.35958e-10
0.0787314
-5.61934e-11
0.0787314
1.37013e-10
0.0787314
-4.04578e-11
0.0787314
1.16996e-10
0.0787314
-3.47878e-11
0.0787314
7.54245e-11
0.0787314
-4.48572e-11
0.0787314
2.69377e-11
0.0787313
-8.16501e-11
0.0787312
1.03955e-12
0.0787309
-9.94958e-11
0.0787309
-3.81791e-11
-1.76905e-11
0.0659419
-0.0131919
0.0738921
-0.00795023
0.0773292
-0.0034371
0.0783811
-0.00105189
0.0786546
-0.000273437
0.078721
-6.64561e-05
0.07873
-9.01198e-06
0.0787322
-2.19557e-06
0.0787315
7.17415e-07
0.0787315
-3.57428e-08
0.0787314
1.77121e-07
0.0787314
-1.92294e-08
0.0787314
2.59806e-08
0.0787314
-6.51124e-09
0.0787314
3.67812e-09
0.0787314
-1.38192e-09
0.0787314
4.04529e-10
0.0787314
-2.7227e-10
0.0787314
-1.05091e-10
0.0787314
-6.13844e-11
0.0787314
-1.57422e-10
0.0787314
1.21189e-11
0.0787314
-1.26707e-10
0.0787314
6.07969e-11
0.0787314
-1.01789e-10
0.0787314
7.04208e-11
0.0787314
-1.20053e-10
0.0787314
3.07985e-11
0.0787314
-1.85922e-10
0.0787314
-5.53652e-11
0.0787314
-2.86706e-10
0.0787314
-1.59735e-10
0.0787314
-3.847e-10
0.0787314
-2.38419e-10
0.0787314
-4.38737e-10
0.0787314
-2.48399e-10
0.0787314
-4.4103e-10
0.0787314
-1.43828e-10
0.0787314
-4.60693e-10
0.0787314
2.17679e-10
0.0787314
-8.79059e-10
0.0787314
1.63317e-09
0.0787314
-2.95307e-09
0.0787314
1.00855e-08
0.0787314
-5.19982e-09
0.0787313
7.49166e-08
0.0787312
5.10543e-08
0.0787309
3.86074e-07
0.0787309
-8.41429e-09
-1.4065e-06
0.0655863
-0.0260281
0.0729
-0.015264
0.0759494
-0.00648652
0.0768624
-0.00196483
0.0770928
-0.000503792
0.0771488
-0.000122528
0.0771556
-1.58657e-05
0.0771575
-4.05865e-06
0.0771568
1.42894e-06
0.0771569
-8.57372e-08
0.0771567
3.4099e-07
0.0771567
-4.04237e-08
0.0771567
4.99956e-08
0.0771567
-1.27357e-08
0.0771567
6.94207e-09
0.0771567
-2.51268e-09
0.0771567
5.9892e-10
0.0771567
-3.89794e-10
0.0771567
-3.78348e-10
0.0771567
-1.39181e-11
0.0771567
-4.69121e-10
0.0771567
1.20642e-10
0.0771567
-3.96002e-10
0.0771567
2.23458e-10
0.0771567
-3.25946e-10
0.0771567
2.57553e-10
0.0771567
-3.43129e-10
0.0771567
1.90086e-10
0.0771567
-4.61387e-10
0.0771567
2.63007e-11
0.0771567
-6.55002e-10
0.0771567
-1.8456e-10
0.0771567
-8.58097e-10
0.0771567
-3.5693e-10
0.0771567
-9.83784e-10
0.0771567
-4.00081e-10
0.0771567
-1.0038e-09
0.0771567
-2.15796e-10
0.0771567
-1.04409e-09
0.0771567
4.82327e-10
0.0771567
-1.85202e-09
0.0771567
3.26085e-09
0.0771567
-5.99047e-09
0.0771567
1.96486e-08
0.0771567
-1.17334e-08
0.0771567
1.44425e-07
0.0771566
9.08079e-08
0.0771563
7.68082e-07
0.0771563
-1.08223e-09
-2.80839e-06
0.064813
-0.0380912
0.0708592
-0.0213103
0.073162
-0.00878936
0.0738152
-0.0026179
0.0739665
-0.000655179
0.0740038
-0.000159849
0.0740069
-1.89297e-05
0.0740082
-5.35422e-06
0.0740075
2.11593e-06
0.0740076
-1.64892e-07
0.0740074
4.80782e-07
0.0740075
-6.60567e-08
0.0740074
7.10564e-08
0.0740075
-1.90251e-08
0.0740075
9.91047e-09
0.0740075
-3.58223e-09
0.0740075
7.65255e-10
0.0740075
-4.8451e-10
0.0740075
-6.46352e-10
0.0740075
4.92965e-11
0.0740075
-7.6989e-10
0.0740075
2.44143e-10
0.0740075
-6.52436e-10
0.0740075
3.99597e-10
0.0740075
-5.41805e-10
0.0740075
4.56881e-10
0.0740075
-5.54491e-10
0.0740075
3.66358e-10
0.0740075
-7.19907e-10
0.0740075
1.28638e-10
0.0740075
-1.0017e-09
0.0740075
-1.81408e-10
0.0740075
-1.30214e-09
0.0740075
-4.41183e-10
0.0740075
-1.49492e-09
0.0740075
-5.15756e-10
0.0740075
-1.53154e-09
0.0740075
-2.56892e-10
0.0740075
-1.59121e-09
0.0740075
7.58346e-10
0.0740075
-2.77133e-09
0.0740075
4.80148e-09
0.0740075
-9.00643e-09
0.0740074
2.81088e-08
0.0740075
-2.05336e-08
0.0740074
2.03171e-07
0.0740074
1.08725e-07
0.074007
1.13763e-06
0.074007
3.80579e-08
-4.19515e-06
0.0634875
-0.0488287
0.067654
-0.0254767
0.0689132
-0.0100486
0.0692208
-0.00292545
0.069271
-0.00070543
0.0692849
-0.000173733
0.0692835
-1.75346e-05
0.0692842
-5.99905e-06
0.0692835
2.73014e-06
0.0692836
-2.81583e-07
0.0692835
5.85993e-07
0.0692836
-9.62992e-08
0.0692835
8.78519e-08
0.0692835
-2.51618e-08
0.0692835
1.24229e-08
0.0692835
-4.53313e-09
0.0692835
8.89867e-10
0.0692835
-5.41377e-10
0.0692835
-9.01371e-10
0.0692835
1.36146e-10
0.0692835
-1.04993e-09
0.0692835
3.87561e-10
0.0692835
-8.91838e-10
0.0692835
5.90092e-10
0.0692835
-7.43055e-10
0.0692835
6.70963e-10
0.0692835
-7.49008e-10
0.0692835
5.61957e-10
0.0692835
-9.52902e-10
0.0692835
2.60988e-10
0.0692835
-1.31114e-09
0.0692835
-1.35285e-10
0.0692835
-1.6947e-09
0.0692835
-4.70922e-10
0.0692835
-1.94585e-09
0.0692835
-5.7315e-10
0.0692835
-1.99732e-09
0.0692835
-2.49552e-10
0.0692835
-2.07673e-09
0.0692835
1.04582e-09
0.0692835
-3.59648e-09
0.0692835
6.1932e-09
0.0692835
-1.18951e-08
0.0692835
3.4973e-08
0.0692835
-3.18623e-08
0.0692835
2.46316e-07
0.0692835
9.6216e-08
0.0692832
1.47721e-06
0.0692831
1.26573e-07
-5.54463e-06
0.0613795
-0.0574581
0.0631083
-0.0272055
0.0631271
-0.0100674
0.0630546
-0.00285291
0.0630003
-0.000651133
0.0629907
-0.000164159
0.0629854
-1.21945e-05
0.0629854
-6.07107e-06
0.062985
3.19316e-06
0.0629851
-4.33448e-07
0.0629851
6.47463e-07
0.0629851
-1.28794e-07
0.0629851
9.90856e-08
0.0629851
-3.06037e-08
0.0629851
1.42652e-08
0.0629851
-5.25904e-09
0.0629851
9.44153e-10
0.0629851
-5.27577e-10
0.0629851
-1.14064e-09
0.0629851
2.67716e-10
0.0629851
-1.30546e-09
0.0629851
5.65721e-10
0.0629851
-1.1153e-09
0.0629851
8.04375e-10
0.0629851
-9.35567e-10
0.0629851
9.05099e-10
0.0629851
-9.33555e-10
0.0629851
7.83975e-10
0.0629851
-1.16295e-09
0.0629851
4.3869e-10
0.0629851
-1.57441e-09
0.0629851
-2.04011e-11
0.0629851
-2.01695e-09
0.0629851
-4.10534e-10
0.0629851
-2.30967e-09
0.0629851
-5.32799e-10
0.0629851
-2.37206e-09
0.0629851
-1.61012e-10
0.0629851
-2.47209e-09
0.0629851
1.35128e-09
0.0629851
-4.27645e-09
0.0629851
7.35482e-09
0.0629851
-1.444e-08
0.0629851
3.97651e-08
0.0629851
-4.49173e-08
0.0629851
2.6969e-07
0.0629851
4.8695e-08
0.0629849
1.75286e-06
0.0629847
2.88816e-07
-6.8219e-06
0.0581213
-0.0628296
0.0569727
-0.0260568
0.0557127
-0.00880729
0.0552892
-0.00242942
0.0551482
-0.000510256
0.05512
-0.000135803
0.0551123
-4.58002e-06
0.0551119
-5.74768e-06
0.0551117
3.40351e-06
0.0551119
-5.99526e-07
0.0551119
6.56918e-07
0.0551119
-1.57779e-07
0.0551119
1.03225e-07
0.0551119
-3.43603e-08
0.0551119
1.51192e-08
0.0551119
-5.58185e-09
0.0551119
8.78723e-10
0.0551119
-3.86248e-10
0.0551119
-1.36555e-09
0.0551119
4.80295e-10
0.0551119
-1.53856e-09
0.0551119
8.02421e-10
0.0551119
-1.33329e-09
0.0551119
1.05686e-09
0.0551119
-1.13808e-09
0.0551119
1.16714e-09
0.0551119
-1.12862e-09
0.0551119
1.04404e-09
0.0551119
-1.36228e-09
0.0551119
6.84908e-10
0.0551119
-1.78774e-09
0.0551119
2.05059e-10
0.0551119
-2.24775e-09
0.0551119
-2.03502e-10
0.0551119
-2.55263e-09
0.0551119
-3.32677e-10
0.0551119
-2.62053e-09
0.0551119
5.93484e-11
0.0551119
-2.74422e-09
0.0551119
1.68275e-09
0.0551119
-4.74341e-09
0.0551119
8.16074e-09
0.0551119
-1.627e-08
0.0551119
4.19168e-08
0.0551119
-5.74591e-08
0.0551119
2.69977e-07
0.055112
-3.08257e-08
0.0551118
1.90275e-06
0.0551116
5.71304e-07
-7.98637e-06
0.053143
-0.0632226
0.0489201
-0.021834
0.046575
-0.00646214
0.0458997
-0.0017541
0.0457107
-0.000321269
0.0456718
-9.68813e-05
0.0456644
2.78967e-06
0.0456638
-5.17402e-06
0.045664
3.25031e-06
0.0456641
-7.30422e-07
0.0456642
6.05351e-07
0.0456642
-1.73186e-07
0.0456642
9.8036e-08
0.0456642
-3.48673e-08
0.0456642
1.4506e-08
0.0456642
-5.25181e-09
0.0456642
6.4621e-10
0.0456642
-6.23672e-11
0.0456642
-1.544e-09
0.0456642
7.94535e-10
0.0456642
-1.71672e-09
0.0456642
1.09878e-09
0.0456642
-1.52863e-09
0.0456642
1.3313e-09
0.0456642
-1.34809e-09
0.0456642
1.43056e-09
0.0456642
-1.33489e-09
0.0456642
1.31958e-09
0.0456642
-1.53996e-09
0.0456642
9.95974e-10
0.0456642
-1.9168e-09
0.0456642
5.64645e-10
0.0456642
-2.3247e-09
0.0456642
1.98345e-10
0.0456642
-2.59322e-09
0.0456642
8.49464e-11
0.0456642
-2.65652e-09
0.0456642
4.53101e-10
0.0456642
-2.81019e-09
0.0456642
2.01535e-09
0.0456642
-4.86018e-09
0.0456642
8.37287e-09
0.0456642
-1.67686e-08
0.0456642
4.05387e-08
0.0456642
-6.54338e-08
0.0456642
2.44575e-07
0.0456643
-1.25031e-07
0.0456644
1.82355e-06
0.0456639
1.04228e-06
-8.93709e-06
0.0455614
-0.056034
0.0385425
-0.014815
0.0356343
-0.00355394
0.0348698
-0.000989566
0.0346865
-0.000137925
0.0346462
-5.66444e-05
0.034642
7.05795e-06
0.034641
-4.25677e-06
0.0346417
2.61681e-06
0.0346417
-7.33453e-07
0.0346418
4.77614e-07
0.0346418
-1.58671e-07
0.0346418
7.93447e-08
0.0346418
-2.95494e-08
0.0346418
1.15488e-08
0.0346418
-3.84276e-09
0.0346418
1.54742e-10
0.0346418
5.28031e-10
0.0346418
-1.62347e-09
0.0346418
1.23074e-09
0.0346418
-1.7807e-09
0.0346418
1.44528e-09
0.0346418
-1.66621e-09
0.0346418
1.58973e-09
0.0346418
-1.55294e-09
0.0346418
1.64347e-09
0.0346418
-1.54406e-09
0.0346418
1.56369e-09
0.0346418
-1.67034e-09
0.0346418
1.35423e-09
0.0346418
-1.89931e-09
0.0346418
1.08239e-09
0.0346418
-2.14349e-09
0.0346418
8.55492e-10
0.0346418
-2.29852e-09
0.0346418
7.94408e-10
0.0346418
-2.34051e-09
0.0346418
1.06724e-09
0.0346418
-2.53233e-09
0.0346418
2.28965e-09
0.0346418
-4.39644e-09
0.0346418
7.56859e-09
0.0346418
-1.49525e-08
0.0346418
3.39958e-08
0.0346418
-6.2375e-08
0.0346419
1.89979e-07
0.0346419
-1.91616e-07
0.0346424
1.373e-06
0.0346419
1.56392e-06
-9.09263e-06
0.0339924
-0.0372764
0.0253721
-0.00619475
0.022859
-0.00104079
0.0221964
-0.00032696
0.0220794
-2.08968e-05
0.0220438
-2.11172e-05
0.0220455
5.37606e-06
0.0220436
-2.31546e-06
0.0220449
1.31759e-06
0.0220445
-4.34268e-07
0.0220449
2.33591e-07
0.0220448
-8.44973e-08
0.0220448
3.71707e-08
0.0220448
-1.32367e-08
0.0220448
4.16219e-09
0.0220448
-3.57224e-10
0.0220448
-9.58873e-10
0.0220448
1.65704e-09
0.0220448
-1.65373e-09
0.0220448
1.92719e-09
0.0220448
-1.75369e-09
0.0220448
1.93284e-09
0.0220448
-1.79546e-09
0.0220448
1.8892e-09
0.0220448
-1.82589e-09
0.0220448
1.84656e-09
0.0220448
-1.83031e-09
0.0220448
1.83141e-09
0.0220448
-1.79678e-09
0.0220448
1.85593e-09
0.0220448
-1.72712e-09
0.0220448
1.90964e-09
0.0220448
-1.64018e-09
0.0220448
1.96667e-09
0.0220448
-1.56822e-09
0.0220448
2.00496e-09
0.0220448
-1.56412e-09
0.0220448
2.05941e-09
0.0220448
-1.7883e-09
0.0220448
2.46926e-09
0.0220448
-3.0145e-09
0.0220448
4.99863e-09
0.0220448
-9.06169e-09
0.0220448
1.87004e-08
0.0220448
-3.72313e-08
0.0220449
9.5835e-08
0.0220448
-1.37491e-07
0.0220456
6.03691e-07
0.0220459
1.23271e-06
-5.93003e-06
0.0154736
0.00927878
0.00823799
0.00791102
0.00789012
0.00786901
0.00787438
0.00787207
0.00787339
0.00787296
0.00787319
0.00787311
0.00787314
0.00787313
0.00787314
0.00787314
0.00787313
0.00787314
0.00787313
0.00787314
0.00787313
0.00787314
0.00787314
0.00787314
0.00787313
0.00787314
0.00787313
0.00787314
0.00787313
0.00787314
0.00787313
0.00787314
0.00787314
0.00787314
0.00787314
0.00787314
0.00787314
0.00787314
0.00787314
0.00787314
0.00787314
0.00787314
0.00787313
0.00787315
0.00787311
0.00787321
0.00787306
0.00787368
0.00787491
)
;

boundaryField
{
    topWall
    {
        type            calculated;
        value           uniform 0;
    }
    bottomWall
    {
        type            calculated;
        value           uniform 0;
    }
    inlet
    {
        type            calculated;
        value           uniform -0.05275;
    }
    outlet
    {
        type            calculated;
        value           nonuniform List<scalar> 
20
(
0.00786897
0.0220427
0.034642
0.0456648
0.0551128
0.0629859
0.0692845
0.0740084
0.0771576
0.0787322
0.0787322
0.0771576
0.0740084
0.0692845
0.0629859
0.0551128
0.0456648
0.034642
0.0220427
0.00786897
)
;
    }
    frontAndBack
    {
        type            empty;
        value           nonuniform 0();
    }
}


// ************************************************************************* //
