/*--------------------------------*- C++ -*----------------------------------*\
| =========                 |                                                 |
| \\      /  F ield         | OpenFOAM: The Open Source CFD Toolbox           |
|  \\    /   O peration     | Version:  3.0.x                                 |
|   \\  /    A nd           | Web:      www.OpenFOAM.org                      |
|    \\/     M anipulation  |                                                 |
\*---------------------------------------------------------------------------*/
FoamFile
{
    version     2.0;
    format      ascii;
    class       surfaceScalarField;
    location    "0.128";
    object      phi;
}
// * * * * * * * * * * * * * * * * * * * * * * * * * * * * * * * * * * * * * //

dimensions      [0 3 -1 0 0 0 0];

internalField   nonuniform List<scalar> 
1930
(
1.46669e-05
3.53331e-05
8.79505e-06
5.8718e-06
7.80852e-06
9.86534e-07
7.4986e-06
3.09915e-07
7.4788e-06
1.98077e-08
7.45878e-06
2.00161e-08
7.46388e-06
-5.09545e-09
7.46168e-06
2.1945e-09
7.46293e-06
-1.24861e-09
7.46252e-06
4.11453e-10
7.46274e-06
-2.21261e-10
7.46266e-06
7.9996e-11
7.46269e-06
-3.51972e-11
7.46268e-06
1.24837e-11
7.46269e-06
-3.97224e-12
7.46269e-06
2.76011e-13
7.46268e-06
8.69368e-13
7.46269e-06
-1.6302e-12
7.46268e-06
1.54896e-12
7.46269e-06
-1.86312e-12
7.46268e-06
1.68212e-12
7.46269e-06
-1.8322e-12
7.46269e-06
1.76134e-12
7.46269e-06
-1.75947e-12
7.46268e-06
1.81398e-12
7.46269e-06
-1.70951e-12
7.46268e-06
1.8147e-12
7.46269e-06
-1.7138e-12
7.46268e-06
1.75156e-12
7.46269e-06
-1.77827e-12
7.46268e-06
1.63708e-12
7.46269e-06
-1.87625e-12
7.46269e-06
1.50924e-12
7.46269e-06
-1.9634e-12
7.46269e-06
1.41889e-12
7.46269e-06
-2.00033e-12
7.46269e-06
1.42769e-12
7.46269e-06
-2.01954e-12
7.46269e-06
1.68527e-12
7.46269e-06
-2.35195e-12
7.46269e-06
2.90872e-12
7.46269e-06
-4.69503e-12
7.46268e-06
8.69092e-12
7.4627e-06
-1.76524e-11
7.46266e-06
3.54107e-11
7.46276e-06
-9.07663e-11
7.46262e-06
1.30404e-10
7.4632e-06
-5.72178e-10
7.46437e-06
-1.16843e-09
5.62088e-09
3.22203e-05
5.31128e-05
2.40494e-05
1.40427e-05
2.16673e-05
3.36867e-06
2.10392e-05
9.37972e-07
2.09283e-05
1.3074e-07
2.08946e-05
5.36879e-08
2.08962e-05
-6.68714e-09
2.08944e-05
4.03285e-09
2.08956e-05
-2.47891e-09
2.08953e-05
6.94275e-10
2.08956e-05
-4.52094e-10
2.08955e-05
1.49961e-10
2.08955e-05
-7.49876e-11
2.08955e-05
2.77298e-11
2.08955e-05
-1.08711e-11
2.08955e-05
3.40255e-12
2.08955e-05
-9.22055e-14
2.08955e-05
-7.0249e-13
2.08955e-05
1.63393e-12
2.08955e-05
-1.3052e-12
2.08955e-05
1.85039e-12
2.08955e-05
-1.43807e-12
2.08955e-05
1.80221e-12
2.08955e-05
-1.52719e-12
2.08955e-05
1.71925e-12
2.08955e-05
-1.57826e-12
2.08955e-05
1.68247e-12
2.08955e-05
-1.54994e-12
2.08955e-05
1.73159e-12
2.08955e-05
-1.43144e-12
2.08955e-05
1.85965e-12
2.08955e-05
-1.25104e-12
2.08955e-05
2.02179e-12
2.08955e-05
-1.07456e-12
2.08955e-05
2.15165e-12
2.08955e-05
-9.92655e-13
2.08955e-05
2.23373e-12
2.08955e-05
-1.16983e-12
2.08955e-05
2.50259e-12
2.08955e-05
-2.21507e-12
2.08955e-05
4.36273e-12
2.08955e-05
-7.12195e-12
2.08955e-05
1.4424e-11
2.08955e-05
-3.21327e-11
2.08955e-05
5.93631e-11
2.08956e-05
-1.80032e-10
2.08955e-05
1.81791e-10
2.08963e-05
-1.30145e-09
2.08966e-05
-1.4824e-09
8.61861e-09
4.31862e-05
5.99266e-05
3.65332e-05
2.06957e-05
3.37766e-05
6.12526e-06
3.30519e-05
1.66265e-06
3.28781e-05
3.04527e-07
3.284e-05
9.1826e-08
3.2836e-05
-2.64065e-09
3.28351e-05
4.90182e-09
3.28357e-05
-3.07919e-09
3.28357e-05
6.91282e-10
3.28358e-05
-5.73143e-10
3.28358e-05
1.63681e-10
3.28358e-05
-9.26658e-11
3.28358e-05
3.27464e-11
3.28358e-05
-1.36009e-11
3.28358e-05
4.72732e-12
3.28358e-05
-4.73727e-13
3.28358e-05
-1.43563e-13
3.28358e-05
1.63077e-12
3.28358e-05
-8.99887e-13
3.28358e-05
1.83578e-12
3.28358e-05
-1.14059e-12
3.28358e-05
1.68742e-12
3.28358e-05
-1.33743e-12
3.28358e-05
1.51835e-12
3.28358e-05
-1.44446e-12
3.28358e-05
1.47228e-12
3.28358e-05
-1.3771e-12
3.28358e-05
1.61416e-12
3.28358e-05
-1.12262e-12
3.28358e-05
1.91488e-12
3.28358e-05
-7.55232e-13
3.28358e-05
2.26761e-12
3.28358e-05
-4.15954e-13
3.28358e-05
2.52756e-12
3.28358e-05
-2.75035e-13
3.28358e-05
2.62585e-12
3.28358e-05
-5.57853e-13
3.28358e-05
2.82697e-12
3.28358e-05
-1.9609e-12
3.28358e-05
4.81318e-12
3.28358e-05
-7.92917e-12
3.28358e-05
1.61067e-11
3.28358e-05
-3.8407e-11
3.28358e-05
6.21923e-11
3.28359e-05
-2.31868e-10
3.28359e-05
1.1862e-10
3.28364e-05
-1.72857e-09
3.28359e-05
-9.87977e-10
8.47118e-09
5.03725e-05
5.95541e-05
4.63698e-05
2.46984e-05
4.41469e-05
8.34815e-06
4.35068e-05
2.30276e-06
4.33277e-05
4.83663e-07
4.32908e-05
1.28718e-07
4.32838e-05
4.34555e-09
4.32832e-05
5.44508e-09
4.32834e-05
-3.22411e-09
4.32835e-05
5.66995e-10
4.32836e-05
-6.21894e-10
4.32836e-05
1.48974e-10
4.32836e-05
-9.7499e-11
4.32836e-05
3.22098e-11
4.32836e-05
-1.41066e-11
4.32836e-05
5.01613e-12
4.32836e-05
-6.29766e-13
4.32836e-05
1.56955e-13
4.32836e-05
1.50953e-12
4.32836e-05
-6.0908e-13
4.32836e-05
1.69532e-12
4.32836e-05
-8.79331e-13
4.32836e-05
1.51088e-12
4.32836e-05
-1.11153e-12
4.32836e-05
1.31388e-12
4.32836e-05
-1.23562e-12
4.32836e-05
1.26947e-12
4.32836e-05
-1.15061e-12
4.32836e-05
1.45018e-12
4.32836e-05
-8.44275e-13
4.32836e-05
1.81797e-12
4.32836e-05
-4.08216e-13
4.32836e-05
2.24224e-12
4.32836e-05
-1.15796e-14
4.32836e-05
2.54957e-12
4.32836e-05
1.49343e-13
4.32836e-05
2.64886e-12
4.32836e-05
-1.66657e-13
4.32836e-05
2.79997e-12
4.32836e-05
-1.64925e-12
4.32836e-05
4.70597e-12
4.32836e-05
-7.75532e-12
4.32836e-05
1.56037e-11
4.32836e-05
-3.97551e-11
4.32836e-05
5.4584e-11
4.32836e-05
-2.55993e-10
4.32837e-05
2.92829e-11
4.32838e-05
-1.80368e-09
4.32833e-05
-5.41573e-10
7.57001e-09
5.50913e-05
5.44627e-05
5.40026e-05
2.57872e-05
5.28082e-05
9.54252e-06
5.24068e-05
2.70417e-06
5.22732e-05
6.17197e-07
5.22464e-05
1.55595e-07
5.22391e-05
1.15637e-08
5.22388e-05
5.75113e-09
5.22386e-05
-3.02438e-09
5.22388e-05
4.09315e-10
5.22388e-05
-6.1275e-10
5.22388e-05
1.2136e-10
5.22388e-05
-9.34682e-11
5.22388e-05
2.85768e-11
5.22388e-05
-1.32261e-11
5.22388e-05
4.67907e-12
5.22388e-05
-6.43218e-13
5.22388e-05
2.80979e-13
5.22388e-05
1.32872e-12
5.22388e-05
-4.1302e-13
5.22388e-05
1.49161e-12
5.22388e-05
-6.6758e-13
5.22388e-05
1.3095e-12
5.22388e-05
-8.92343e-13
5.22388e-05
1.11856e-12
5.22388e-05
-1.0113e-12
5.22388e-05
1.08019e-12
5.22388e-05
-9.24626e-13
5.22388e-05
1.26376e-12
5.22388e-05
-6.2036e-13
5.22388e-05
1.63098e-12
5.22388e-05
-1.91253e-13
5.22388e-05
2.05174e-12
5.22388e-05
1.98223e-13
5.22388e-05
2.35537e-12
5.22388e-05
3.5529e-13
5.22388e-05
2.44753e-12
5.22388e-05
5.24258e-14
5.22388e-05
2.56279e-12
5.22388e-05
-1.33759e-12
5.22388e-05
4.26337e-12
5.22388e-05
-7.00558e-12
5.22388e-05
1.3849e-11
5.22388e-05
-3.77384e-11
5.22388e-05
4.26632e-11
5.22388e-05
-2.55746e-10
5.22389e-05
-4.61201e-11
5.22387e-05
-1.66163e-09
5.22385e-05
-2.73823e-10
6.46625e-09
5.81796e-05
4.62831e-05
5.98183e-05
2.41485e-05
5.98361e-05
9.52475e-06
5.97674e-05
2.77293e-06
5.97159e-05
6.68664e-07
5.97068e-05
1.64669e-07
5.97018e-05
1.6626e-08
5.97018e-05
5.68242e-09
5.97014e-05
-2.58516e-09
5.97015e-05
2.65092e-10
5.97015e-05
-5.54283e-10
5.97015e-05
9.04064e-11
5.97015e-05
-8.27049e-11
5.97015e-05
2.33402e-11
5.97015e-05
-1.14118e-11
5.97015e-05
3.95491e-12
5.97015e-05
-5.49902e-13
5.97015e-05
2.78598e-13
5.97015e-05
1.12918e-12
5.97015e-05
-2.97706e-13
5.97015e-05
1.26453e-12
5.97015e-05
-5.1261e-13
5.97015e-05
1.10539e-12
5.97015e-05
-7.06576e-13
5.97015e-05
9.38799e-13
5.97015e-05
-8.08916e-13
5.97015e-05
9.072e-13
5.97015e-05
-7.31097e-13
5.97015e-05
1.07119e-12
5.97015e-05
-4.62336e-13
5.97015e-05
1.39598e-12
5.97015e-05
-8.52313e-14
5.97015e-05
1.76784e-12
5.97015e-05
2.58125e-13
5.97015e-05
2.03699e-12
5.97015e-05
3.97448e-13
5.97015e-05
2.11685e-12
5.97015e-05
1.36745e-13
5.97015e-05
2.20408e-12
5.97015e-05
-1.05454e-12
5.97015e-05
3.62227e-12
5.97015e-05
-5.91801e-12
5.97015e-05
1.14271e-11
5.97015e-05
-3.32137e-11
5.97015e-05
3.02725e-11
5.97015e-05
-2.3361e-10
5.97015e-05
-9.11764e-11
5.97013e-05
-1.40036e-09
5.97011e-05
-1.20042e-10
5.25556e-09
6.01777e-05
3.61054e-05
6.4127e-05
2.01992e-05
6.53206e-05
8.33116e-06
6.56121e-05
2.48141e-06
6.56597e-05
6.21033e-07
6.56729e-05
1.51509e-07
6.56716e-05
1.79488e-08
6.56722e-05
5.07083e-09
6.56716e-05
-2.00265e-09
6.56717e-05
1.5423e-10
6.56716e-05
-4.54365e-10
6.56717e-05
6.15972e-11
6.56716e-05
-6.66792e-11
6.56716e-05
1.74503e-11
6.56716e-05
-8.97226e-12
6.56716e-05
3.01931e-12
6.56716e-05
-3.98311e-13
6.56716e-05
2.0884e-13
6.56716e-05
9.09141e-13
6.56716e-05
-2.25e-13
6.56716e-05
1.01258e-12
6.56716e-05
-3.88218e-13
6.56716e-05
8.86382e-13
6.56716e-05
-5.40051e-13
6.56716e-05
7.53069e-13
6.56716e-05
-6.21081e-13
6.56716e-05
7.27004e-13
6.56716e-05
-5.59536e-13
6.56716e-05
8.56878e-13
6.56716e-05
-3.46928e-13
6.56716e-05
1.11392e-12
6.56716e-05
-4.79019e-14
6.56716e-05
1.41077e-12
6.56716e-05
2.26978e-13
6.56716e-05
1.62779e-12
6.56716e-05
3.4157e-13
6.56716e-05
1.69299e-12
6.56716e-05
1.40549e-13
6.56716e-05
1.75695e-12
6.56716e-05
-7.88474e-13
6.56716e-05
2.84496e-12
6.56716e-05
-4.60855e-12
6.56716e-05
8.68642e-12
6.56716e-05
-2.67194e-11
6.56716e-05
1.95263e-11
6.56716e-05
-1.92727e-10
6.56716e-05
-1.03041e-10
6.56713e-05
-1.0785e-09
6.56712e-05
-3.61436e-11
3.97643e-09
6.14341e-05
2.46712e-05
6.71651e-05
1.44682e-05
6.93479e-05
6.14836e-06
6.9967e-05
1.86239e-06
7.01104e-05
4.77539e-07
7.01458e-05
1.16132e-07
7.01487e-05
1.50449e-08
7.015e-05
3.8425e-09
7.01493e-05
-1.35123e-09
7.01494e-05
7.89994e-11
7.01492e-05
-3.21706e-10
7.01493e-05
3.7187e-11
7.01492e-05
-4.66335e-11
7.01493e-05
1.14328e-11
7.01493e-05
-6.1157e-12
7.01493e-05
1.98031e-12
7.01493e-05
-2.17799e-13
7.01493e-05
1.07796e-13
7.01493e-05
6.68059e-13
7.01493e-05
-1.72264e-13
7.01493e-05
7.36707e-13
7.01493e-05
-2.77607e-13
7.01493e-05
6.47729e-13
7.01493e-05
-3.8248e-13
7.01493e-05
5.5104e-13
7.01493e-05
-4.41125e-13
7.01493e-05
5.29349e-13
7.01493e-05
-4.00474e-13
7.01493e-05
6.16345e-13
7.01493e-05
-2.56099e-13
7.01493e-05
7.91414e-13
7.01493e-05
-4.88387e-14
7.01493e-05
9.99338e-13
7.01493e-05
1.45124e-13
7.01493e-05
1.15391e-12
7.01493e-05
2.30468e-13
7.01493e-05
1.20294e-12
7.01493e-05
9.90107e-14
7.01493e-05
1.24526e-12
7.01493e-05
-5.31545e-13
7.01493e-05
1.97572e-12
7.01493e-05
-3.15381e-12
7.01493e-05
5.82463e-12
7.01492e-05
-1.87068e-11
7.01493e-05
1.11786e-11
7.01492e-05
-1.37049e-10
7.01492e-05
-8.6064e-11
7.01488e-05
-7.28228e-10
7.01488e-05
9.55341e-13
2.66195e-09
6.21671e-05
1.25042e-05
6.90995e-05
7.53575e-06
7.199e-05
3.25792e-06
7.28554e-05
9.97037e-07
7.30737e-05
2.59193e-07
7.31268e-05
6.29837e-08
7.31333e-05
8.54868e-09
7.31351e-05
2.07636e-09
7.31344e-05
-6.76626e-10
7.31345e-05
3.14828e-11
7.31343e-05
-1.66282e-10
7.31343e-05
1.70249e-11
7.31343e-05
-2.38187e-11
7.31343e-05
5.49738e-12
7.31343e-05
-2.99632e-12
7.31343e-05
8.93213e-13
7.31343e-05
-2.08184e-14
7.31343e-05
-9.81589e-15
7.31343e-05
4.15921e-13
7.31343e-05
-1.30443e-13
7.31343e-05
4.46057e-13
7.31343e-05
-1.7723e-13
7.31343e-05
3.96887e-13
7.31343e-05
-2.31922e-13
7.31343e-05
3.37892e-13
7.31343e-05
-2.69205e-13
7.31343e-05
3.18708e-13
7.31343e-05
-2.53035e-13
7.31343e-05
3.57327e-13
7.31343e-05
-1.82568e-13
7.31343e-05
4.44114e-13
7.31343e-05
-7.47882e-14
7.31343e-05
5.54801e-13
7.31343e-05
3.19706e-14
7.31343e-05
6.42215e-13
7.31343e-05
8.6277e-14
7.31343e-05
6.74537e-13
7.31343e-05
3.01536e-14
7.31343e-05
6.95989e-13
7.31343e-05
-2.81853e-13
7.31343e-05
1.05493e-12
7.31343e-05
-1.61313e-12
7.31343e-05
2.94333e-12
7.31343e-05
-9.64412e-12
7.31343e-05
4.98155e-12
7.31343e-05
-7.11656e-11
7.31342e-05
-4.83888e-11
7.31339e-05
-3.66136e-10
7.31339e-05
7.90371e-12
1.33315e-09
6.25042e-05
8.86025e-13
7.00399e-05
-3.76632e-12
7.32978e-05
4.91842e-12
7.42949e-05
-5.27368e-12
7.45541e-05
5.3569e-12
7.46171e-05
-3.97352e-12
7.46256e-05
3.29795e-12
7.46277e-05
-2.40354e-12
7.4627e-05
1.72118e-12
7.4627e-05
-1.22006e-12
7.46269e-05
8.19723e-13
7.46269e-05
-6.13308e-13
7.46269e-05
4.12689e-13
7.46269e-05
-3.43033e-13
7.46269e-05
2.49396e-13
7.46269e-05
-2.1079e-13
7.46269e-05
1.83389e-13
7.46269e-05
-1.3496e-13
7.46269e-05
1.59159e-13
7.46269e-05
-9.49061e-14
7.46269e-05
1.49017e-13
7.46269e-05
-8.35585e-14
7.46269e-05
1.38603e-13
7.46269e-05
-8.71679e-14
7.46269e-05
1.21716e-13
7.46269e-05
-1.01574e-13
7.46269e-05
1.02577e-13
7.46269e-05
-1.13215e-13
7.46269e-05
9.00752e-14
7.46269e-05
-1.18015e-13
7.46269e-05
8.66666e-14
7.46269e-05
-1.13379e-13
7.46269e-05
9.58411e-14
7.46269e-05
-9.69859e-14
7.46269e-05
1.1388e-13
7.46269e-05
-7.47124e-14
7.46269e-05
1.2887e-13
7.46269e-05
-5.32639e-14
7.46269e-05
1.2987e-13
7.46269e-05
-3.83486e-14
7.46269e-05
1.10897e-13
7.46269e-05
-3.29742e-14
7.46269e-05
7.14924e-14
7.46269e-05
-4.25187e-14
7.46269e-05
2.55334e-14
7.46268e-05
-7.73935e-14
7.46267e-05
9.8536e-16
7.46264e-05
-9.43088e-14
7.46264e-05
-3.61887e-14
-1.67682e-14
6.25042e-05
-1.25042e-05
7.00399e-05
-7.53576e-06
7.32978e-05
-3.25791e-06
7.42949e-05
-9.97048e-07
7.45541e-05
-2.59182e-07
7.46171e-05
-6.29916e-08
7.46256e-05
-8.54216e-09
7.46277e-05
-2.08111e-09
7.4627e-05
6.80014e-10
7.4627e-05
-3.38794e-11
7.46269e-05
1.67887e-10
7.46269e-05
-1.82269e-11
7.46269e-05
2.46262e-11
7.46269e-05
-6.17179e-12
7.46269e-05
3.48637e-12
7.46269e-05
-1.30988e-12
7.46269e-05
3.8344e-13
7.46269e-05
-2.58076e-13
7.46269e-05
-9.9612e-14
7.46269e-05
-5.81843e-14
7.46269e-05
-1.49215e-13
7.46269e-05
1.14871e-14
7.46269e-05
-1.20101e-13
7.46269e-05
5.76274e-14
7.46269e-05
-9.6482e-14
7.46269e-05
6.67496e-14
7.46269e-05
-1.13794e-13
7.46269e-05
2.91929e-14
7.46269e-05
-1.76229e-13
7.46269e-05
-5.24789e-14
7.46269e-05
-2.71759e-13
7.46269e-05
-1.51408e-13
7.46269e-05
-3.64645e-13
7.46269e-05
-2.2599e-13
7.46269e-05
-4.15864e-13
7.46269e-05
-2.35449e-13
7.46269e-05
-4.18038e-13
7.46269e-05
-1.3633e-13
7.46269e-05
-4.36676e-13
7.46269e-05
2.06331e-13
7.46269e-05
-8.33231e-13
7.46269e-05
1.54803e-12
7.46269e-05
-2.79912e-12
7.46269e-05
9.55968e-12
7.46269e-05
-4.92874e-12
7.46268e-05
7.1011e-11
7.46267e-05
4.83927e-11
7.46264e-05
3.65947e-10
7.46264e-05
-7.97563e-12
-1.33318e-09
6.21671e-05
-2.46712e-05
6.90995e-05
-1.44682e-05
7.199e-05
-6.14836e-06
7.28554e-05
-1.8624e-06
7.30737e-05
-4.77528e-07
7.31268e-05
-1.1614e-07
7.31333e-05
-1.50386e-08
7.31351e-05
-3.84706e-09
7.31344e-05
1.35445e-09
7.31345e-05
-8.12675e-11
7.31343e-05
3.23213e-10
7.31343e-05
-3.83163e-11
7.31343e-05
4.73892e-11
7.31343e-05
-1.20718e-11
7.31343e-05
6.58016e-12
7.31343e-05
-2.38169e-12
7.31343e-05
5.67697e-13
7.31343e-05
-3.69473e-13
7.31343e-05
-3.58624e-13
7.31343e-05
-1.31925e-14
7.31343e-05
-4.44664e-13
7.31343e-05
1.14353e-13
7.31343e-05
-3.75357e-13
7.31343e-05
2.11809e-13
7.31343e-05
-3.08954e-13
7.31343e-05
2.44126e-13
7.31343e-05
-3.25241e-13
7.31343e-05
1.80176e-13
7.31343e-05
-4.37334e-13
7.31343e-05
2.49296e-14
7.31343e-05
-6.20855e-13
7.31343e-05
-1.74938e-13
7.31343e-05
-8.13362e-13
7.31343e-05
-3.38322e-13
7.31343e-05
-9.32497e-13
7.31343e-05
-3.79224e-13
7.31343e-05
-9.51466e-13
7.31343e-05
-2.04546e-13
7.31343e-05
-9.89658e-13
7.31343e-05
4.57182e-13
7.31343e-05
-1.75547e-12
7.31343e-05
3.09085e-12
7.31343e-05
-5.67817e-12
7.31343e-05
1.86243e-11
7.31343e-05
-1.11217e-11
7.31343e-05
1.36896e-10
7.31342e-05
8.60738e-11
7.31339e-05
7.2804e-10
7.31339e-05
-1.02581e-12
-2.66198e-09
6.14341e-05
-3.61054e-05
6.71651e-05
-2.01993e-05
6.93479e-05
-8.33115e-06
6.9967e-05
-2.48142e-06
7.01104e-05
-6.21023e-07
7.01458e-05
-1.51516e-07
7.01487e-05
-1.79428e-08
7.015e-05
-5.07509e-09
7.01493e-05
2.00562e-09
7.01494e-05
-1.56296e-10
7.01492e-05
4.55718e-10
7.01493e-05
-6.2613e-11
7.01492e-05
6.7352e-11
7.01493e-05
-1.80333e-11
7.01493e-05
9.39381e-12
7.01493e-05
-3.39548e-12
7.01493e-05
7.2536e-13
7.01493e-05
-4.59251e-13
7.01493e-05
-6.12656e-13
7.01493e-05
4.67265e-14
7.01493e-05
-7.29754e-13
7.01493e-05
2.31415e-13
7.01493e-05
-6.18423e-13
7.01493e-05
3.78765e-13
7.01493e-05
-5.13559e-13
7.01493e-05
4.33063e-13
7.01493e-05
-5.25584e-13
7.01493e-05
3.47259e-13
7.01493e-05
-6.82376e-13
7.01493e-05
1.21932e-13
7.01493e-05
-9.49476e-13
7.01493e-05
-1.71951e-13
7.01493e-05
-1.23426e-12
7.01493e-05
-4.18183e-13
7.01493e-05
-1.41699e-12
7.01493e-05
-4.88868e-13
7.01493e-05
-1.4517e-12
7.01493e-05
-2.435e-13
7.01493e-05
-1.50826e-12
7.01493e-05
7.18811e-13
7.01493e-05
-2.62685e-12
7.01493e-05
4.55117e-12
7.01493e-05
-8.5369e-12
7.01492e-05
2.66434e-11
7.01493e-05
-1.94631e-11
7.01492e-05
1.92579e-10
7.01492e-05
1.03057e-10
7.01488e-05
1.07832e-09
7.01488e-05
3.60738e-11
-3.97645e-09
6.01777e-05
-4.62831e-05
6.4127e-05
-2.41485e-05
6.53206e-05
-9.52474e-06
6.56121e-05
-2.77294e-06
6.56597e-05
-6.68654e-07
6.56729e-05
-1.64676e-07
6.56716e-05
-1.66205e-08
6.56722e-05
-5.6863e-09
6.56716e-05
2.58781e-09
6.56717e-05
-2.66903e-10
6.56716e-05
5.55444e-10
6.56717e-05
-9.12789e-11
6.56716e-05
8.32719e-11
6.56716e-05
-2.385e-11
6.56716e-05
1.17753e-11
6.56716e-05
-4.29681e-12
6.56716e-05
8.43476e-13
6.56716e-05
-5.13154e-13
6.56716e-05
-8.5438e-13
6.56716e-05
1.29048e-13
6.56716e-05
-9.95191e-13
6.56716e-05
3.67356e-13
6.56716e-05
-8.45344e-13
6.56716e-05
5.59329e-13
6.56716e-05
-7.04318e-13
6.56716e-05
6.35984e-13
6.56716e-05
-7.0996e-13
6.56716e-05
5.32661e-13
6.56716e-05
-9.03225e-13
6.56716e-05
2.47382e-13
6.56716e-05
-1.24279e-12
6.56716e-05
-1.28232e-13
6.56716e-05
-1.60635e-12
6.56716e-05
-4.46372e-13
6.56716e-05
-1.84441e-12
6.56716e-05
-5.4327e-13
6.56716e-05
-1.89319e-12
6.56716e-05
-2.36542e-13
6.56716e-05
-1.96846e-12
6.56716e-05
9.91294e-13
6.56716e-05
-3.40899e-12
6.56716e-05
5.87033e-12
6.56716e-05
-1.1275e-11
6.56716e-05
3.31498e-11
6.56716e-05
-3.02012e-11
6.56716e-05
2.33475e-10
6.56716e-05
9.12e-11
6.56713e-05
1.4002e-09
6.56712e-05
1.19974e-10
-5.25557e-09
5.81796e-05
-5.44627e-05
5.98183e-05
-2.57872e-05
5.98361e-05
-9.54252e-06
5.97674e-05
-2.70418e-06
5.97159e-05
-6.17188e-07
5.97068e-05
-1.55601e-07
5.97018e-05
-1.15588e-08
5.97018e-05
-5.75457e-09
5.97014e-05
3.02669e-09
5.97015e-05
-4.10851e-10
5.97015e-05
6.13709e-10
5.97015e-05
-1.2208e-10
5.97015e-05
9.392e-11
5.97015e-05
-2.90082e-11
5.97015e-05
1.35215e-11
5.97015e-05
-4.98487e-12
5.97015e-05
8.94932e-13
5.97015e-05
-5.00073e-13
5.97015e-05
-1.08118e-12
5.97015e-05
2.53759e-13
5.97015e-05
-1.2374e-12
5.97015e-05
5.36228e-13
5.97015e-05
-1.05716e-12
5.97015e-05
7.62441e-13
5.97015e-05
-8.86793e-13
5.97015e-05
8.57914e-13
5.97015e-05
-8.84886e-13
5.97015e-05
7.43104e-13
5.97015e-05
-1.10232e-12
5.97015e-05
4.1582e-13
5.97015e-05
-1.49233e-12
5.97015e-05
-1.93375e-14
5.97015e-05
-1.9118e-12
5.97015e-05
-3.89132e-13
5.97015e-05
-2.18926e-12
5.97015e-05
-5.05023e-13
5.97015e-05
-2.2484e-12
5.97015e-05
-1.52618e-13
5.97015e-05
-2.34321e-12
5.97015e-05
1.28083e-12
5.97015e-05
-4.05351e-12
5.97015e-05
6.97139e-12
5.97015e-05
-1.36872e-11
5.97015e-05
3.7692e-11
5.97015e-05
-4.25756e-11
5.97015e-05
2.5563e-10
5.97015e-05
4.61564e-11
5.97013e-05
1.66148e-09
5.97011e-05
2.73759e-10
-6.46626e-09
5.50913e-05
-5.95541e-05
5.40026e-05
-2.46984e-05
5.28082e-05
-8.34814e-06
5.24068e-05
-2.30277e-06
5.22732e-05
-4.83655e-07
5.22464e-05
-1.28723e-07
5.22391e-05
-4.34125e-09
5.22388e-05
-5.44804e-09
5.22386e-05
3.22608e-09
5.22388e-05
-5.68271e-10
5.22388e-05
6.22671e-10
5.22388e-05
-1.49554e-10
5.22388e-05
9.78436e-11
5.22388e-05
-3.2569e-11
5.22388e-05
1.4331e-11
5.22388e-05
-5.29085e-12
5.22388e-05
8.32913e-13
5.22388e-05
-3.66112e-13
5.22388e-05
-1.29436e-12
5.22388e-05
4.55256e-13
5.22388e-05
-1.45835e-12
5.22388e-05
7.60589e-13
5.22388e-05
-1.26378e-12
5.22388e-05
1.00176e-12
5.22388e-05
-1.07875e-12
5.22388e-05
1.10629e-12
5.22388e-05
-1.06978e-12
5.22388e-05
9.89612e-13
5.22388e-05
-1.29126e-12
5.22388e-05
6.49202e-13
5.22388e-05
-1.69454e-12
5.22388e-05
1.94369e-13
5.22388e-05
-2.13057e-12
5.22388e-05
-1.92893e-13
5.22388e-05
-2.41955e-12
5.22388e-05
-3.15334e-13
5.22388e-05
-2.48391e-12
5.22388e-05
5.62544e-14
5.22388e-05
-2.60116e-12
5.22388e-05
1.59502e-12
5.22388e-05
-4.49612e-12
5.22388e-05
7.7353e-12
5.22388e-05
-1.54218e-11
5.22388e-05
3.97316e-11
5.22388e-05
-5.44636e-11
5.22388e-05
2.55902e-10
5.22389e-05
-2.92187e-11
5.22387e-05
1.80355e-09
5.22385e-05
5.4152e-10
-7.57002e-09
5.03725e-05
-5.99266e-05
4.63698e-05
-2.06957e-05
4.41469e-05
-6.12525e-06
4.35068e-05
-1.66265e-06
4.33277e-05
-3.0452e-07
4.32908e-05
-9.18306e-08
4.32838e-05
2.64424e-09
4.32832e-05
-4.90428e-09
4.32834e-05
3.08086e-09
4.32835e-05
-6.92343e-10
4.32836e-05
5.73792e-10
4.32836e-05
-1.64157e-10
4.32836e-05
9.29251e-11
4.32836e-05
-3.30496e-11
4.32836e-05
1.37498e-11
4.32836e-05
-4.97802e-12
4.32836e-05
6.12521e-13
4.32836e-05
-5.91158e-14
4.32836e-05
-1.46351e-12
4.32836e-05
7.53114e-13
4.32836e-05
-1.62722e-12
4.32836e-05
1.0415e-12
4.32836e-05
-1.44894e-12
4.32836e-05
1.2619e-12
4.32836e-05
-1.27781e-12
4.32836e-05
1.35598e-12
4.32836e-05
-1.2653e-12
4.32836e-05
1.25079e-12
4.32836e-05
-1.45968e-12
4.32836e-05
9.44051e-13
4.32836e-05
-1.81687e-12
4.32836e-05
5.35209e-13
4.32836e-05
-2.20351e-12
4.32836e-05
1.88005e-13
4.32836e-05
-2.45803e-12
4.32836e-05
8.05179e-14
4.32836e-05
-2.51803e-12
4.32836e-05
4.2948e-13
4.32836e-05
-2.66369e-12
4.32836e-05
1.91028e-12
4.32836e-05
-4.60681e-12
4.32836e-05
7.93637e-12
4.32836e-05
-1.58944e-11
4.32836e-05
3.84253e-11
4.32836e-05
-6.20226e-11
4.32836e-05
2.31825e-10
4.32837e-05
-1.18513e-10
4.32838e-05
1.72848e-09
4.32833e-05
9.87941e-10
-8.47118e-09
4.31862e-05
-5.31128e-05
3.65332e-05
-1.40427e-05
3.37766e-05
-3.36866e-06
3.30519e-05
-9.37977e-07
3.28782e-05
-1.30735e-07
3.284e-05
-5.36914e-08
3.2836e-05
6.69e-09
3.28351e-05
-4.03485e-09
3.28357e-05
2.48039e-09
3.28357e-05
-6.95216e-10
3.28358e-05
4.52715e-10
3.28358e-05
-1.50399e-10
3.28358e-05
7.52082e-11
3.28358e-05
-2.80089e-11
3.28358e-05
1.09467e-11
3.28358e-05
-3.64243e-12
3.28358e-05
1.46675e-13
3.28358e-05
5.00503e-13
3.28358e-05
-1.53883e-12
3.28358e-05
1.16658e-12
3.28358e-05
-1.68787e-12
3.28358e-05
1.36993e-12
3.28358e-05
-1.57935e-12
3.28358e-05
1.50685e-12
3.28358e-05
-1.47198e-12
3.28358e-05
1.55779e-12
3.28358e-05
-1.46356e-12
3.28358e-05
1.48217e-12
3.28358e-05
-1.58326e-12
3.28358e-05
1.28363e-12
3.28358e-05
-1.80029e-12
3.28358e-05
1.02596e-12
3.28358e-05
-2.03174e-12
3.28358e-05
8.10893e-13
3.28358e-05
-2.17869e-12
3.28358e-05
7.52993e-13
3.28358e-05
-2.21849e-12
3.28358e-05
1.0116e-12
3.28358e-05
-2.40031e-12
3.28358e-05
2.17028e-12
3.28358e-05
-4.16724e-12
3.28358e-05
7.17402e-12
3.28358e-05
-1.4173e-11
3.28358e-05
3.22235e-11
3.28358e-05
-5.91232e-11
3.28359e-05
1.80075e-10
3.28359e-05
-1.81627e-10
3.28364e-05
1.30142e-09
3.28359e-05
1.48239e-09
-8.61861e-09
3.22203e-05
-3.53331e-05
2.40494e-05
-5.8718e-06
2.16673e-05
-9.86534e-07
2.10392e-05
-3.09915e-07
2.09283e-05
-1.98074e-08
2.08946e-05
-2.00163e-08
2.08962e-05
5.09579e-09
2.08944e-05
-2.19475e-09
2.08956e-05
1.2489e-09
2.08953e-05
-4.11628e-10
2.08956e-05
2.21413e-10
2.08955e-05
-8.00922e-11
2.08955e-05
3.52329e-11
2.08955e-05
-1.25466e-11
2.08955e-05
3.9452e-12
2.08955e-05
-3.38601e-13
2.08955e-05
-9.08884e-13
2.08955e-05
1.57065e-12
2.08955e-05
-1.56752e-12
2.08955e-05
1.82672e-12
2.08955e-05
-1.66227e-12
2.08955e-05
1.83208e-12
2.08955e-05
-1.70186e-12
2.08955e-05
1.79071e-12
2.08955e-05
-1.7307e-12
2.08955e-05
1.75029e-12
2.08955e-05
-1.73489e-12
2.08955e-05
1.73593e-12
2.08955e-05
-1.70311e-12
2.08955e-05
1.75918e-12
2.08955e-05
-1.63708e-12
2.08955e-05
1.81009e-12
2.08955e-05
-1.55467e-12
2.08955e-05
1.86414e-12
2.08955e-05
-1.48646e-12
2.08955e-05
1.90044e-12
2.08955e-05
-1.48258e-12
2.08955e-05
1.95205e-12
2.08955e-05
-1.69507e-12
2.08955e-05
2.34053e-12
2.08955e-05
-2.85735e-12
2.08955e-05
4.73804e-12
2.08955e-05
-8.58928e-12
2.08955e-05
1.77255e-11
2.08955e-05
-3.52903e-11
2.08956e-05
9.08389e-11
2.08955e-05
-1.30323e-10
2.08963e-05
5.72219e-10
2.08966e-05
1.16845e-09
-5.62088e-09
1.46669e-05
8.79505e-06
7.80852e-06
7.4986e-06
7.47879e-06
7.45878e-06
7.46387e-06
7.46168e-06
7.46293e-06
7.46252e-06
7.46274e-06
7.46266e-06
7.46269e-06
7.46268e-06
7.46269e-06
7.46269e-06
7.46268e-06
7.46269e-06
7.46268e-06
7.46269e-06
7.46268e-06
7.46269e-06
7.46269e-06
7.46269e-06
7.46268e-06
7.46269e-06
7.46268e-06
7.46269e-06
7.46268e-06
7.46269e-06
7.46268e-06
7.46269e-06
7.46269e-06
7.46269e-06
7.46269e-06
7.46269e-06
7.46269e-06
7.46269e-06
7.46269e-06
7.46269e-06
7.46269e-06
7.46269e-06
7.46268e-06
7.4627e-06
7.46266e-06
7.46276e-06
7.46262e-06
7.4632e-06
7.46437e-06
)
;

boundaryField
{
    topWall
    {
        type            calculated;
        value           uniform 0;
    }
    bottomWall
    {
        type            calculated;
        value           uniform 0;
    }
    inlet
    {
        type            calculated;
        value           nonuniform List<scalar> 
20
(
-5e-05
-5e-05
-5e-05
-5e-05
-5e-05
-5e-05
-5e-05
-5e-05
-5e-05
-5e-05
-5e-05
-5e-05
-5e-05
-5e-05
-5e-05
-5e-05
-5e-05
-5e-05
-5e-05
-5e-05
)
;
    }
    outlet
    {
        type            calculated;
        value           nonuniform List<scalar> 
20
(
7.45874e-06
2.08936e-05
3.2836e-05
4.32842e-05
5.22396e-05
5.97023e-05
6.56725e-05
7.01501e-05
7.31352e-05
7.46277e-05
7.46277e-05
7.31352e-05
7.01501e-05
6.56725e-05
5.97023e-05
5.22396e-05
4.32842e-05
3.2836e-05
2.08936e-05
7.45874e-06
)
;
    }
    frontAndBack
    {
        type            empty;
        value           nonuniform 0();
    }
}


// ************************************************************************* //
