/*--------------------------------*- C++ -*----------------------------------*\
  =========                 |
  \\      /  F ield         | OpenFOAM: The Open Source CFD Toolbox
   \\    /   O peration     | Website:  https://openfoam.org
    \\  /    A nd           | Version:  dev
     \\/     M anipulation  |
\*---------------------------------------------------------------------------*/
FoamFile
{
    version     2.0;
    format      ascii;
    class       volVectorField;
    location    "0.128";
    object      U;
}
// * * * * * * * * * * * * * * * * * * * * * * * * * * * * * * * * * * * * * //

dimensions      [0 1 -1 0 0 0 0];

internalField   nonuniform List<vector>
1000
(
(0.301998 0.095922 6.58417e-18)
(0.226692 0.0106287 6.2643e-18)
(0.155487 0.0003751 1.49625e-18)
(0.152943 0.000266168 -4.08804e-19)
(0.148902 -3.51514e-05 3.2775e-21)
(0.149531 2.40466e-05 -1.15757e-18)
(0.149121 -1.12791e-05 -2.22276e-21)
(0.149297 4.067e-06 1.524e-18)
(0.149228 -2.15692e-06 -1.54387e-18)
(0.149263 8.12307e-07 3.70595e-19)
(0.149249 -3.80742e-07 1.89185e-18)
(0.149256 1.51027e-07 -1.52188e-18)
(0.149253 -6.16752e-08 -1.89209e-18)
(0.149254 2.27837e-08 1.17454e-18)
(0.149254 -5.75035e-09 3.93522e-19)
(0.149254 9.96739e-11 -7.80999e-19)
(0.149254 3.59742e-09 1.15137e-18)
(0.149254 -3.72814e-09 1.40435e-26)
(0.149254 4.93888e-09 -1.91528e-18)
(0.149254 -4.49977e-09 1.15138e-18)
(0.149254 4.92701e-09 7.63903e-19)
(0.149254 -4.85333e-09 -1.91528e-18)
(0.149254 4.64635e-09 2.31482e-20)
(0.149254 -5.15918e-09 3.70377e-19)
(0.149254 4.33602e-09 -4.39823e-19)
(0.149254 -5.35225e-09 1.84558e-25)
(0.149254 4.13233e-09 -3.47229e-19)
(0.149254 -5.43675e-09 1.90922e-18)
(0.149254 4.11071e-09 3.70377e-19)
(0.149254 -5.2364e-09 -1.90922e-18)
(0.149254 4.37442e-09 -1.29331e-25)
(0.149254 -4.83222e-09 2.19292e-25)
(0.149254 4.75744e-09 -1.22616e-25)
(0.149254 -4.38746e-09 2.30275e-18)
(0.149254 5.06598e-09 -1.23203e-25)
(0.149254 -4.14898e-09 -1.90922e-18)
(0.149254 5.19538e-09 2.31486e-20)
(0.149254 -4.24158e-09 -7.63902e-19)
(0.149254 5.33175e-09 -1.02422e-25)
(0.149254 -5.36285e-09 2.67314e-18)
(0.149254 6.88532e-09 -2.31483e-20)
(0.149254 -1.02531e-08 -2.67313e-18)
(0.149254 1.68512e-08 3.1731e-24)
(0.149254 -3.41647e-08 -4.10198e-24)
(0.149253 6.84236e-08 1.61968e-23)
(0.149255 -1.59838e-07 1.15747e-18)
(0.14925 3.00749e-07 -3.70366e-19)
(0.149263 -4.82266e-07 -7.87557e-19)
(0.14927 -2.9043e-05 -1.1624e-21)
(0.149247 3.0149e-05 -1.16566e-19)
(0.660615 0.232265 2.57625e-17)
(0.564159 0.0554597 8.47791e-19)
(0.433716 0.0103816 2.43583e-18)
(0.426991 0.00279984 -6.73944e-19)
(0.417434 0.000306964 -5.31673e-19)
(0.418614 0.000156078 -3.48505e-20)
(0.417631 -3.10129e-05 -8.34061e-21)
(0.418011 1.35581e-05 1.15913e-18)
(0.417853 -8.80188e-06 -1.66662e-18)
(0.417931 2.55271e-06 5.79126e-19)
(0.4179 -1.56265e-06 1.7355e-18)
(0.417915 5.38239e-07 -1.15731e-18)
(0.417909 -2.56057e-07 -1.19126e-18)
(0.417911 9.43857e-08 -5.44574e-19)
(0.41791 -3.56383e-08 5.44579e-19)
(0.417911 8.9107e-09 1.08916e-18)
(0.41791 2.89343e-10 3.40357e-20)
(0.417911 -4.9097e-09 -5.44578e-19)
(0.417911 5.94762e-09 -1.15723e-18)
(0.417911 -6.55362e-09 1.12319e-18)
(0.417911 6.95661e-09 1.12319e-18)
(0.417911 -6.56503e-09 -1.7018e-18)
(0.417911 7.23988e-09 -1.12319e-18)
(0.417911 -6.38857e-09 5.78612e-19)
(0.417911 7.36169e-09 6.80725e-20)
(0.417911 -6.26887e-09 -5.44575e-19)
(0.417911 7.38092e-09 -6.12647e-19)
(0.417911 -6.13478e-09 1.15722e-18)
(0.41791 7.38752e-09 5.78612e-19)
(0.41791 -6.0999e-09 -1.15722e-18)
(0.41791 7.20034e-09 4.59614e-25)
(0.41791 -6.19042e-09 -5.44574e-19)
(0.41791 7.00312e-09 1.73853e-25)
(0.41791 -6.2421e-09 3.3355e-18)
(0.41791 6.89785e-09 8.41504e-26)
(0.41791 -6.29117e-09 -2.24644e-18)
(0.41791 7.02894e-09 -3.40368e-20)
(0.41791 -6.74482e-09 -1.12318e-18)
(0.41791 8.40676e-09 1.5298e-25)
(0.41791 -9.69326e-09 3.36949e-18)
(0.41791 1.58804e-08 -5.10528e-19)
(0.417911 -2.63399e-08 -3.3695e-18)
(0.41791 5.30059e-08 5.44565e-19)
(0.417911 -1.13527e-07 -8.982e-24)
(0.417909 2.20853e-07 2.45657e-23)
(0.417914 -6.21722e-07 1.66779e-18)
(0.417903 7.23186e-07 -5.78513e-19)
(0.417933 -4.18204e-06 -5.44638e-19)
(0.41791 -6.83355e-06 -5.42141e-19)
(0.417916 9.10042e-05 8.00709e-19)
(0.869623 0.290378 -5.32467e-19)
(0.812034 0.093059 1.3081e-18)
(0.675972 0.0240139 5.18342e-19)
(0.668859 0.00644098 -6.04421e-19)
(0.656252 0.00106267 -1.1317e-18)
(0.657739 0.000345369 6.19899e-19)
(0.656359 -2.42432e-05 5.3443e-19)
(0.656859 2.02598e-05 1.05689e-18)
(0.65664 -1.35013e-05 -1.08848e-18)
(0.656745 3.18487e-06 5.4471e-19)
(0.656702 -2.44418e-06 1.59921e-18)
(0.656722 7.31168e-07 -1.59968e-18)
(0.656714 -3.92601e-07 -1.02091e-18)
(0.656718 1.39345e-07 -1.19112e-18)
(0.656716 -5.5135e-08 -2.96011e-24)
(0.656717 1.72263e-08 2.28011e-18)
(0.656716 4.03794e-10 -6.8063e-20)
(0.656716 -3.459e-09 -1.12304e-18)
(0.656716 9.12446e-09 6.8063e-20)
(0.656716 -6.58217e-09 -5.445e-19)
(0.656716 1.00348e-08 5.445e-19)
(0.656716 -7.44448e-09 -5.10468e-19)
(0.656716 9.5644e-09 -1.70156e-18)
(0.656716 -8.10116e-09 1.089e-18)
(0.656716 8.97143e-09 2.21203e-18)
(0.656716 -8.45802e-09 -3.40313e-20)
(0.656716 8.765e-09 -1.089e-18)
(0.656716 -8.2401e-09 5.10468e-19)
(0.656716 9.15966e-09 5.44499e-19)
(0.656716 -7.39628e-09 3.40317e-20)
(0.656716 1.01284e-08 -5.44497e-19)
(0.656716 -6.13042e-09 -1.12303e-18)
(0.656716 1.1295e-08 7.77403e-25)
(0.656716 -4.9379e-09 1.70186e-18)
(0.656716 1.21765e-08 -1.66113e-24)
(0.656716 -4.39547e-09 -1.12341e-18)
(0.656716 1.25962e-08 -5.44674e-19)
(0.656716 -5.45136e-09 1.60482e-24)
(0.656716 1.37022e-08 2.25587e-24)
(0.656716 -1.11862e-08 1.12301e-18)
(0.656716 2.28362e-08 -3.40318e-20)
(0.656717 -3.67982e-08 -1.6675e-18)
(0.656716 7.38044e-08 5.7852e-19)
(0.656717 -1.68724e-07 -5.44501e-19)
(0.656714 2.88867e-07 1.64483e-23)
(0.656722 -9.89958e-07 1.08901e-18)
(0.656706 6.39274e-07 9.73185e-23)
(0.656747 -7.6461e-06 5.78152e-19)
(0.656692 -6.54863e-06 -1.12437e-18)
(0.656737 3.14755e-05 3.8131e-19)
(0.988638 0.304593 -1.62055e-18)
(0.993335 0.119176 7.50672e-19)
(0.881294 0.0370857 5.26593e-19)
(0.878343 0.0101361 -5.63565e-19)
(0.86504 0.00200228 -1.12173e-18)
(0.86689 0.00054968 1.1027e-18)
(0.865272 4.93475e-06 1.12112e-18)
(0.865848 2.43772e-05 3.40639e-20)
(0.865584 -1.5572e-05 -1.1218e-18)
(0.865706 2.89162e-06 -1.66421e-22)
(0.865655 -2.91734e-06 5.78356e-19)
(0.865678 7.38034e-07 -1.15699e-18)
(0.865669 -4.57261e-07 -3.39938e-20)
(0.865673 1.53551e-07 3.40135e-20)
(0.865671 -6.51289e-08 5.44425e-19)
(0.865672 2.21364e-08 1.66734e-18)
(0.865672 -1.84999e-09 -5.10407e-19)
(0.865672 -8.33197e-10 -1.1229e-18)
(0.865672 8.15498e-09 1.08887e-18)
(0.865672 -4.28764e-09 -1.70136e-18)
(0.865672 9.097e-09 -3.39865e-25)
(0.865672 -5.44714e-09 1.08887e-18)
(0.865672 8.31815e-09 -5.44432e-19)
(0.865672 -6.44843e-09 5.78459e-19)
(0.865672 7.44931e-09 3.40272e-20)
(0.865672 -6.99321e-09 3.40272e-20)
(0.865672 7.22537e-09 3.19026e-26)
(0.865672 -6.61605e-09 -5.44432e-19)
(0.865672 8.02434e-09 -1.29514e-26)
(0.865672 -5.2306e-09 5.78459e-19)
(0.865672 9.64675e-09 -3.40274e-20)
(0.865672 -3.27103e-09 -5.78468e-19)
(0.865672 1.15446e-08 9.41959e-25)
(0.865672 -1.4515e-09 -3.40393e-20)
(0.865672 1.29323e-08 -2.49631e-24)
(0.865672 -7.32688e-10 5.78747e-19)
(0.865672 1.33809e-08 0)
(0.865672 -2.13936e-09 1.12312e-18)
(0.865672 1.4204e-08 8.97099e-25)
(0.865672 -9.09503e-09 -1.70132e-18)
(0.865672 2.35753e-08 -5.44421e-19)
(0.865672 -3.82562e-08 5.78447e-19)
(0.865671 7.69708e-08 5.44417e-19)
(0.865673 -1.89846e-07 -5.78454e-19)
(0.865669 2.78182e-07 -1.08881e-18)
(0.865678 -1.20135e-06 5.78539e-19)
(0.865659 2.44792e-07 1.1227e-18)
(0.865705 -9.01249e-06 5.44823e-19)
(0.865627 -3.71494e-06 -5.78709e-19)
(0.8657 3.43161e-05 -5.60316e-19)
(1.05489 0.288824 7.75203e-18)
(1.12459 0.131198 1.88607e-18)
(1.05057 0.0460741 5.22425e-19)
(1.05566 0.0129424 -1.18579e-18)
(1.04366 0.00283877 -5.3467e-19)
(1.04606 0.000724116 -5.52769e-19)
(1.04435 4.30404e-05 1.12021e-18)
(1.04498 2.70007e-05 1.09097e-18)
(1.04468 -1.54687e-05 -1.6651e-18)
(1.04481 2.17575e-06 -5.44623e-19)
(1.04476 -3.03924e-06 1.66697e-18)
(1.04478 6.31756e-07 -1.6673e-18)
(1.04477 -4.63861e-07 -1.12274e-18)
(1.04478 1.44312e-07 1.70122e-18)
(1.04478 -6.55127e-08 3.40254e-20)
(1.04478 2.3082e-08 5.10356e-19)
(1.04478 -2.84395e-09 5.44377e-19)
(1.04478 1.29699e-09 -1.08876e-18)
(1.04478 6.91626e-09 -6.54896e-25)
(1.04478 -2.10621e-09 -1.66715e-18)
(1.04478 7.71339e-09 5.44376e-19)
(1.04478 -3.33346e-09 3.40235e-20)
(1.04478 6.83337e-09 -5.10352e-19)
(1.04478 -4.42065e-09 1.08875e-18)
(1.04478 5.91019e-09 -6.80468e-20)
(1.04478 -4.99704e-09 1.08875e-18)
(1.04478 5.7338e-09 6.82822e-26)
(1.04478 -4.54875e-09 -5.44375e-19)
(1.04478 6.62038e-09 5.44375e-19)
(1.04478 -3.08404e-09 5.10351e-19)
(1.04478 8.40213e-09 5.78397e-19)
(1.04478 -9.81865e-10 -5.10426e-19)
(1.04478 1.04301e-08 -1.08924e-18)
(1.04478 8.75508e-10 -3.40453e-20)
(1.04478 1.1899e-08 2.69269e-24)
(1.04478 1.68962e-09 5.78746e-19)
(1.04478 1.23896e-08 -1.63443e-25)
(1.04478 2.00872e-10 1.1231e-18)
(1.04478 1.30238e-08 -1.10602e-24)
(1.04478 -6.70551e-09 -1.70114e-18)
(1.04478 2.17256e-08 1.14196e-24)
(1.04478 -3.5206e-08 1.12275e-18)
(1.04478 7.08851e-08 1.43747e-24)
(1.04478 -1.88358e-07 -2.17748e-18)
(1.04477 2.27424e-07 -1.7011e-18)
(1.04478 -1.26991e-06 1.63325e-18)
(1.04476 -1.58812e-07 2.21114e-18)
(1.04481 -8.78214e-06 -5.44382e-19)
(1.04472 -1.6868e-06 3.40958e-20)
(1.04481 3.40754e-05 5.6028e-19)
(1.09075 0.254155 -9.33737e-18)
(1.21846 0.129002 1.28639e-18)
(1.18604 0.0491464 1.58737e-18)
(1.20148 0.0142074 -1.20201e-18)
(1.19214 0.00333486 -5.25998e-19)
(1.19527 0.000824496 -5.85212e-19)
(1.19357 7.58842e-05 1.08596e-18)
(1.19425 2.8105e-05 1.12515e-18)
(1.19393 -1.38484e-05 -2.20912e-18)
(1.19407 1.42799e-06 -3.41191e-20)
(1.19401 -2.88154e-06 2.21085e-18)
(1.19404 4.85618e-07 -1.08875e-18)
(1.19403 -4.28522e-07 -1.08863e-18)
(1.19403 1.22577e-07 1.63302e-18)
(1.19403 -5.87933e-08 -3.40203e-20)
(1.19403 2.02775e-08 -1.05465e-18)
(1.19403 -2.56108e-09 5.44329e-19)
(1.19403 1.12963e-09 -5.78351e-19)
(1.19403 6.06169e-09 -1.08866e-18)
(1.19403 -1.81636e-09 -1.02785e-24)
(1.19403 6.76521e-09 1.667e-18)
(1.19403 -2.89114e-09 -5.78348e-19)
(1.19403 5.96881e-09 -6.12368e-19)
(1.19403 -3.86967e-09 1.12268e-18)
(1.19403 5.12883e-09 -5.10307e-19)
(1.19403 -4.37376e-09 3.40201e-20)
(1.19403 4.97741e-09 -5.44327e-19)
(1.19403 -3.99578e-09 -3.40204e-20)
(1.19403 5.794e-09 5.78348e-19)
(1.19403 -2.59583e-09 -5.10306e-19)
(1.19403 7.49171e-09 1.66713e-18)
(1.19403 -6.31185e-10 -3.40308e-20)
(1.19403 9.44493e-09 -1.702e-18)
(1.19403 1.1815e-09 6.12793e-19)
(1.19403 1.08389e-08 5.44704e-19)
(1.19403 1.88806e-09 -3.4044e-20)
(1.19403 1.12393e-08 -1.34407e-24)
(1.19403 5.11596e-10 5.44507e-19)
(1.19403 1.16812e-08 -5.44319e-19)
(1.19403 -5.76486e-09 -5.10297e-19)
(1.19403 1.91518e-08 -5.86e-26)
(1.19403 -3.11174e-08 5.44318e-19)
(1.19403 6.07266e-08 -1.34706e-24)
(1.19403 -1.73103e-07 -1.73502e-18)
(1.19403 1.66435e-07 -1.66692e-18)
(1.19404 -1.21968e-06 1.70109e-18)
(1.19401 -4.45175e-07 1.70072e-18)
(1.19406 -7.71915e-06 -1.12301e-18)
(1.19397 -6.96422e-07 5.44783e-19)
(1.19407 2.93489e-05 2.02682e-19)
(1.10935 0.207346 -2.22832e-18)
(1.28421 0.114129 2.42982e-18)
(1.29039 0.0459914 8.30111e-19)
(1.31666 0.0136401 -1.21561e-18)
(1.31061 0.00335216 -5.66909e-19)
(1.31455 0.000818698 5.52033e-19)
(1.31294 9.27994e-05 1.11164e-18)
(1.31367 2.68469e-05 -5.11448e-19)
(1.31334 -1.12811e-05 -1.1552e-18)
(1.31348 8.26371e-07 -5.10385e-19)
(1.31341 -2.49583e-06 6.12247e-19)
(1.31344 3.40593e-07 1.05465e-18)
(1.31343 -3.63978e-07 -3.40328e-20)
(1.31343 9.54823e-08 -1.05459e-18)
(1.31343 -4.85616e-08 1.0622e-24)
(1.31343 1.60995e-08 4.7626e-19)
(1.31343 -1.91121e-09 -5.10273e-19)
(1.31343 7.8762e-10 -5.44292e-19)
(1.31343 5.18871e-09 -6.12327e-19)
(1.31343 -1.51161e-09 -5.10296e-19)
(1.31343 5.76774e-09 1.70099e-18)
(1.31343 -2.38115e-09 5.10271e-19)
(1.31343 5.08458e-09 -1.63287e-18)
(1.31343 -3.20582e-09 5.78307e-19)
(1.31343 4.35936e-09 1.63287e-18)
(1.31343 -3.65255e-09 1.05456e-18)
(1.31343 4.20443e-09 -1.1226e-18)
(1.31343 -3.30403e-09 -1.05456e-18)
(1.31343 4.95296e-09 5.44289e-19)
(1.31343 -2.12098e-09 -3.4018e-20)
(1.31343 6.35204e-09 2.21166e-18)
(1.31343 -4.94083e-10 5.44582e-19)
(1.31343 7.98081e-09 -1.66805e-18)
(1.31343 1.02177e-09 3.4956e-24)
(1.31343 9.16766e-09 -1.05537e-18)
(1.31343 1.63096e-09 -5.44703e-19)
(1.31343 9.50838e-09 1.0894e-18)
(1.31343 5.50266e-10 -5.44488e-19)
(1.31343 9.88008e-09 -5.78296e-19)
(1.31343 -4.50431e-09 5.44279e-19)
(1.31343 1.59001e-08 -6.15006e-25)
(1.31343 -2.56062e-08 -5.4428e-19)
(1.31343 4.81705e-08 -2.31633e-24)
(1.31343 -1.46736e-07 -5.44292e-19)
(1.31343 1.10358e-07 -5.44248e-19)
(1.31344 -1.06555e-06 1.66692e-18)
(1.31342 -5.66958e-07 5.44194e-19)
(1.31347 -6.22437e-06 -5.7849e-19)
(1.31337 -2.26157e-07 -1.23935e-22)
(1.31347 2.30535e-05 7.84311e-19)
(1.11836 0.152753 3.08336e-18)
(1.32846 0.0889812 3.09764e-18)
(1.36617 0.0372589 8.5538e-19)
(1.4021 0.0112758 -1.73728e-18)
(1.39923 0.00285785 -5.33243e-19)
(1.40395 0.000695215 6.1992e-19)
(1.40246 8.83875e-05 1.65904e-18)
(1.40323 2.25029e-05 -1.19342e-18)
(1.40289 -8.21447e-06 -5.09538e-19)
(1.40303 4.16017e-07 -5.78474e-19)
(1.40297 -1.92386e-06 -6.12071e-19)
(1.40299 2.15937e-07 2.2793e-18)
(1.40298 -2.76757e-07 3.40154e-20)
(1.40299 6.71603e-08 -1.73487e-18)
(1.40298 -3.60004e-08 3.40179e-20)
(1.40299 1.15658e-08 -4.76234e-19)
(1.40298 -1.15045e-09 -6.80331e-20)
(1.40299 6.08318e-10 -6.19479e-25)
(1.40299 4.06533e-09 -1.05451e-18)
(1.40299 -1.03488e-09 -6.80591e-20)
(1.40299 4.45546e-09 1.63342e-18)
(1.40299 -1.67246e-09 6.46436e-19)
(1.40299 3.9188e-09 -5.7839e-19)
(1.40299 -2.29962e-09 1.0545e-18)
(1.40299 3.34954e-09 6.12293e-19)
(1.40299 -2.64048e-09 6.8033e-20)
(1.40299 3.23924e-09 -3.40163e-20)
(1.40299 -2.38401e-09 1.02049e-18)
(1.40299 3.76752e-09 5.26573e-26)
(1.40299 -1.51844e-09 -1.63295e-18)
(1.40299 4.81928e-09 1.15715e-18)
(1.40299 -2.8574e-10 6.12796e-19)
(1.40299 6.03903e-09 -5.44707e-19)
(1.40299 8.44171e-10 -6.12794e-19)
(1.40299 6.95286e-09 -6.46836e-19)
(1.40299 1.36348e-09 -1.08941e-18)
(1.40299 7.23864e-09 6.12788e-19)
(1.40299 5.68627e-10 -3.40305e-20)
(1.40299 7.49444e-09 -1.0885e-18)
(1.40299 -3.205e-09 -1.99797e-25)
(1.40298 1.18002e-08 1.0885e-18)
(1.40299 -1.87004e-08 -3.40163e-20)
(1.40298 3.47342e-08 -1.08849e-18)
(1.40299 -1.11414e-07 1.15655e-18)
(1.40298 6.56603e-08 3.24363e-24)
(1.40299 -8.2559e-07 5.44299e-19)
(1.40297 -5.31302e-07 5.10151e-19)
(1.40302 -4.52363e-06 -1.05486e-18)
(1.40292 3.73506e-09 3.91564e-23)
(1.40302 1.64941e-05 1.33142e-19)
(1.12239 0.0933586 -3.0178e-18)
(1.35563 0.0563916 1.9426e-18)
(1.41546 0.0241867 2.91219e-33)
(1.45859 0.0074211 -1.76427e-18)
(1.45819 0.00191716 -5.34486e-19)
(1.46351 0.000466064 -3.43451e-20)
(1.46214 6.31332e-05 1.12052e-18)
(1.46293 1.50468e-05 -5.4557e-19)
(1.46259 -4.95063e-06 5.43584e-19)
(1.46274 1.73465e-07 -1.66758e-18)
(1.46267 -1.21109e-06 -1.12229e-18)
(1.4627 1.1589e-07 2.78952e-18)
(1.46268 -1.72282e-07 5.44229e-19)
(1.46269 3.92047e-08 -1.66678e-18)
(1.46269 -2.17323e-08 -5.78257e-19)
(1.46269 6.66283e-09 -3.40166e-20)
(1.46269 -3.77488e-10 3.4015e-20)
(1.46269 1.74533e-10 3.11207e-25)
(1.46269 2.73582e-09 -1.1225e-18)
(1.46269 -7.54281e-10 3.40294e-20)
(1.46269 2.95565e-09 1.12298e-18)
(1.46269 -1.10722e-09 5.10446e-19)
(1.46269 2.62081e-09 1.14067e-25)
(1.46269 -1.48347e-09 6.1233e-19)
(1.46269 2.24764e-09 -3.40149e-20)
(1.46269 -1.71153e-09 5.10226e-19)
(1.46269 2.15673e-09 6.80306e-20)
(1.46269 -1.57158e-09 1.73477e-18)
(1.46269 2.44647e-09 5.44348e-19)
(1.46269 -1.05891e-09 -2.24605e-18)
(1.46269 3.09563e-09 5.10585e-19)
(1.46269 -2.73272e-10 5.10662e-19)
(1.46269 3.87599e-09 -5.44709e-19)
(1.46269 4.55869e-10 -5.10664e-19)
(1.46269 4.4706e-09 -1.05537e-18)
(1.46269 8.08672e-10 -1.7022e-18)
(1.46269 4.67491e-09 5.10656e-19)
(1.46269 3.50678e-10 5.78494e-19)
(1.46269 4.80418e-09 -5.78245e-19)
(1.46269 -1.92145e-09 -2.15497e-25)
(1.46269 7.39645e-09 2.24494e-18)
(1.46269 -1.14552e-08 3.40148e-20)
(1.46269 2.08927e-08 -2.24493e-18)
(1.46269 -6.95642e-08 1.08848e-18)
(1.46268 3.33667e-08 5.44209e-19)
(1.46269 -5.21756e-07 1.08855e-18)
(1.46267 -3.7125e-07 6.80218e-20)
(1.46272 -2.73493e-06 -1.70119e-18)
(1.46262 7.35016e-08 5.56786e-23)
(1.46272 9.90667e-06 2.37947e-19)
(1.12387 0.0313898 -1.01572e-18)
(1.36853 0.0192987 3.21703e-18)
(1.43973 0.00837397 -4.8398e-19)
(1.48668 0.00258725 -2.86845e-18)
(1.48763 0.000674565 -5.67045e-19)
(1.49329 0.000163999 -1.13639e-18)
(1.49198 2.28708e-05 1.08345e-18)
(1.49279 5.28952e-06 1.70493e-18)
(1.49244 -1.64435e-06 -4.5646e-23)
(1.49259 4.10073e-08 -1.12302e-18)
(1.49252 -4.10711e-07 -5.10127e-19)
(1.49255 3.42871e-08 5.44286e-19)
(1.49253 -5.71661e-08 1.12934e-24)
(1.49254 1.18085e-08 3.40153e-20)
(1.49254 -6.49255e-09 -1.66671e-18)
(1.49254 1.51174e-09 -1.66673e-18)
(1.49254 4.63296e-10 1.12248e-18)
(1.49254 -4.07374e-10 -1.56581e-25)
(1.49254 1.41995e-09 -1.70073e-18)
(1.49254 -5.76324e-10 1.66745e-18)
(1.49254 1.46792e-09 1.66758e-18)
(1.49254 -6.44415e-10 -1.66758e-18)
(1.49254 1.33171e-09 5.78754e-19)
(1.49254 -7.74648e-10 2.17884e-18)
(1.49254 1.1537e-09 -1.66744e-18)
(1.49254 -9.03919e-10 -1.08846e-18)
(1.49254 1.04607e-09 1.59868e-18)
(1.49254 -8.94469e-10 3.33353e-18)
(1.49254 1.11702e-09 5.78518e-19)
(1.49254 -7.24656e-10 -1.70213e-18)
(1.49254 1.32434e-09 -1.08936e-18)
(1.49254 -4.59688e-10 -1.63412e-18)
(1.49254 1.62521e-09 -5.78751e-19)
(1.49254 -1.41973e-10 1.63412e-18)
(1.49254 1.88133e-09 1.08941e-18)
(1.49254 4.16961e-11 -2.75756e-18)
(1.49254 2.00126e-09 -1.0894e-18)
(1.49254 -3.63378e-11 1.12295e-18)
(1.49254 2.02451e-09 -1.08844e-18)
(1.49254 -7.47423e-10 5.44221e-19)
(1.49254 2.87023e-09 3.87756e-18)
(1.49254 -3.97772e-09 1.08844e-18)
(1.49254 7.1643e-09 -3.87754e-18)
(1.49254 -2.37785e-08 -1.08846e-18)
(1.49253 1.0094e-08 5.78214e-19)
(1.49254 -1.78591e-07 1.70081e-18)
(1.49252 -1.32665e-07 1.05425e-18)
(1.49257 -9.14421e-07 -3.33438e-18)
(1.49247 3.68769e-08 5.44648e-19)
(1.49257 3.30448e-06 4.40415e-18)
(1.12387 -0.0313897 -7.33558e-19)
(1.36853 -0.0192988 2.03745e-18)
(1.43973 -0.00837392 -1.00674e-18)
(1.48668 -0.0025873 -2.33136e-18)
(1.48763 -0.000674511 1.60991e-33)
(1.49329 -0.000164039 1.01012e-22)
(1.49198 -2.28375e-05 5.7613e-19)
(1.49279 -5.31406e-06 1.67084e-18)
(1.49244 1.66183e-06 5.33475e-24)
(1.49259 -5.34687e-08 -5.44503e-19)
(1.49252 4.1918e-07 -3.40002e-20)
(1.49255 -4.05589e-08 -3.40183e-20)
(1.49253 6.14334e-08 2.53846e-24)
(1.49254 -1.53222e-08 -5.44246e-19)
(1.49254 9.03364e-09 -1.66671e-18)
(1.49254 -3.66974e-09 -1.12249e-18)
(1.49254 1.36619e-09 5.44234e-19)
(1.49254 -9.68168e-10 3.93846e-26)
(1.49254 1.59978e-10 -1.08847e-18)
(1.49254 -3.80686e-10 1.12297e-18)
(1.49254 1.83357e-11 1.12311e-18)
(1.49254 -1.84001e-10 -3.40335e-20)
(1.49254 6.02831e-11 5.44709e-19)
(1.49254 -8.84828e-11 1.15751e-18)
(1.49254 6.45451e-11 -1.12346e-18)
(1.49254 -1.04026e-10 -1.12316e-18)
(1.49254 -2.5769e-11 1.70176e-18)
(1.49254 -2.30996e-10 1.66772e-18)
(1.49254 -2.159e-10 -8.09854e-26)
(1.49254 -4.55723e-10 -1.05536e-18)
(1.49254 -4.69049e-10 -5.78745e-19)
(1.49254 -6.87625e-10 -6.80884e-20)
(1.49254 -6.68271e-10 1.16086e-25)
(1.49254 -8.15391e-10 1.1575e-18)
(1.49254 -7.45008e-10 5.78748e-19)
(1.49254 -7.9223e-10 -2.2469e-18)
(1.49254 -7.12471e-10 -5.78746e-19)
(1.49254 -4.78781e-10 5.44461e-19)
(1.49254 -7.05875e-10 -5.78235e-19)
(1.49254 3.97193e-10 1.12245e-18)
(1.49254 -1.73198e-09 1.19048e-18)
(1.49254 3.66065e-09 3.40139e-20)
(1.49254 -6.46993e-09 -2.2789e-18)
(1.49254 2.33732e-08 -6.12256e-19)
(1.49253 -9.85418e-09 1.6326e-18)
(1.49254 1.77841e-07 5.78281e-19)
(1.49252 1.32652e-07 -5.10119e-19)
(1.49257 9.13477e-07 -1.15681e-18)
(1.49247 -3.73139e-08 5.78706e-19)
(1.49257 -3.30471e-06 2.38022e-19)
(1.12239 -0.0933586 1.48877e-18)
(1.35563 -0.0563917 2.529e-18)
(1.41546 -0.0241866 -7.20424e-19)
(1.45859 -0.00742115 -1.75545e-18)
(1.45819 -0.00191711 1.09975e-18)
(1.46351 -0.000466103 3.50562e-20)
(1.46214 -6.31004e-05 -5.42468e-19)
(1.46293 -1.50705e-05 1.09114e-18)
(1.46259 4.96753e-06 -5.43854e-19)
(1.46274 -1.85604e-07 5.4455e-19)
(1.46267 1.21907e-06 5.4413e-19)
(1.4627 -1.22003e-07 -5.10284e-19)
(1.46268 1.76309e-07 -1.63267e-18)
(1.46269 -4.26218e-08 -6.80292e-20)
(1.46269 2.41984e-08 5.10227e-19)
(1.46269 -8.73587e-09 -1.63274e-18)
(1.46269 2.22068e-09 -5.44244e-19)
(1.46269 -1.48099e-09 -2.63576e-25)
(1.46269 -1.12917e-09 -2.19769e-25)
(1.46269 -1.57099e-10 1.63343e-18)
(1.46269 -1.45165e-09 5.44535e-19)
(1.46269 3.06634e-10 -1.021e-18)
(1.46269 -1.22615e-09 5.4471e-19)
(1.46269 6.35869e-10 1.08942e-18)
(1.46269 -1.02419e-09 -5.44475e-19)
(1.46269 7.28543e-10 -1.1225e-18)
(1.46269 -1.11541e-09 1.70075e-18)
(1.46269 4.64052e-10 1.63275e-18)
(1.46269 -1.55172e-09 -1.123e-18)
(1.46269 -1.15636e-10 -3.40428e-20)
(1.46269 -2.23495e-09 -5.44682e-19)
(1.46269 -8.37309e-10 -1.02133e-18)
(1.46269 -2.92626e-09 1.12346e-18)
(1.46269 -1.4293e-09 1.63412e-18)
(1.46269 -3.3268e-09 1.08941e-18)
(1.46269 -1.52649e-09 -1.12345e-18)
(1.46269 -3.36501e-09 -5.44702e-19)
(1.46269 -8.62188e-10 -5.44467e-19)
(1.46269 -3.49651e-09 -5.44231e-19)
(1.46269 1.56847e-09 1.12247e-18)
(1.46269 -6.28174e-09 -6.46271e-19)
(1.46269 1.11665e-08 -3.40147e-20)
(1.46269 -2.01489e-08 -1.05444e-18)
(1.46269 6.91849e-08 -1.05446e-18)
(1.46268 -3.30858e-08 1.70066e-18)
(1.46269 5.20993e-07 4.76249e-19)
(1.46267 3.7124e-07 -5.7815e-19)
(1.46272 2.73397e-06 -1.02075e-18)
(1.46262 -7.38582e-08 5.44654e-19)
(1.46272 -9.90683e-06 6.93255e-19)
(1.11836 -0.152753 1.70652e-18)
(1.32846 -0.0889812 2.10481e-18)
(1.36617 -0.0372588 1.19565e-18)
(1.4021 -0.0112759 -3.93582e-20)
(1.39923 -0.0028578 3.29364e-20)
(1.40395 -0.000695253 -5.86186e-19)
(1.40246 -8.83565e-05 -1.15267e-18)
(1.40323 -2.25253e-05 1.12524e-18)
(1.40289 8.23042e-06 -3.39951e-20)
(1.40303 -4.27221e-07 1.12306e-18)
(1.40297 1.93116e-06 1.15635e-18)
(1.40299 -2.21591e-07 -1.12265e-18)
(1.40298 2.80427e-07 -2.27902e-18)
(1.40299 -7.03785e-08 6.12311e-19)
(1.40298 3.82944e-08 1.73483e-18)
(1.40299 -1.35708e-08 -2.2451e-18)
(1.40298 2.92146e-09 -5.78279e-19)
(1.40299 -1.89284e-09 5.44263e-19)
(1.40299 -2.48121e-09 -5.44262e-19)
(1.40299 1.34295e-10 1.70152e-18)
(1.40299 -2.9589e-09 -2.64699e-25)
(1.40299 8.74791e-10 -1.73562e-18)
(1.40299 -2.52637e-09 1.1231e-18)
(1.40299 1.45965e-09 5.44306e-19)
(1.40299 -2.11652e-09 -5.44261e-19)
(1.40299 1.65654e-09 -1.08852e-18)
(1.40299 -2.20064e-09 -3.40168e-20)
(1.40299 1.27262e-09 2.24507e-18)
(1.40299 -2.87084e-09 -1.12268e-18)
(1.40299 3.5254e-10 -5.44466e-19)
(1.40299 -3.96274e-09 -5.64797e-26)
(1.40299 -8.57721e-10 -1.1575e-18)
(1.40299 -5.12221e-09 1.12346e-18)
(1.40299 -1.84982e-09 1.12346e-18)
(1.40299 -5.86122e-09 1.12345e-18)
(1.40299 -2.11811e-09 3.40456e-20)
(1.40299 -5.96593e-09 9.56927e-25)
(1.40299 -1.09624e-09 -1.12298e-18)
(1.40299 -6.19363e-09 -1.0885e-18)
(1.40299 2.81316e-09 1.0885e-18)
(1.40298 -1.0676e-08 -5.78262e-19)
(1.40299 1.84583e-08 -1.0885e-18)
(1.40298 -3.38998e-08 -5.44243e-19)
(1.40299 1.11013e-07 5.10238e-19)
(1.40298 -6.5391e-08 2.75518e-18)
(1.40299 8.24796e-07 6.12313e-19)
(1.40297 5.3139e-07 -2.21066e-18)
(1.40302 4.52268e-06 -6.12578e-19)
(1.40292 -3.98958e-09 -9.91956e-23)
(1.40302 -1.64942e-05 4.27338e-19)
(1.10935 -0.207345 -8.84427e-18)
(1.28421 -0.114129 1.07056e-18)
(1.29039 -0.0459914 1.34708e-18)
(1.31666 -0.0136402 6.32382e-19)
(1.31061 -0.00335211 -6.43417e-20)
(1.31455 -0.000818734 -5.86406e-19)
(1.31294 -9.2771e-05 -1.61951e-18)
(1.31367 -2.68677e-05 5.79637e-19)
(1.31334 1.12956e-05 3.42992e-20)
(1.31348 -8.36032e-07 1.12304e-18)
(1.31341 2.50245e-06 1.63255e-18)
(1.31344 -3.45368e-07 -1.70107e-18)
(1.31343 3.67267e-07 -2.21109e-18)
(1.31343 -9.8329e-08 1.66692e-18)
(1.31343 5.05827e-08 1.66688e-18)
(1.31343 -1.80376e-08 -2.78951e-18)
(1.31343 3.44508e-09 -5.44291e-19)
(1.31343 -2.11855e-09 1.1226e-18)
(1.31343 -3.77564e-09 -3.40186e-20)
(1.31343 5.68458e-10 1.66753e-18)
(1.31343 -4.38214e-09 2.98986e-25)
(1.31343 1.57393e-09 -2.78995e-18)
(1.31343 -3.74543e-09 1.12278e-18)
(1.31343 2.3974e-09 5.78307e-19)
(1.31343 -3.15053e-09 -5.78307e-19)
(1.31343 2.68615e-09 -5.78307e-19)
(1.31343 -3.2201e-09 -1.66688e-18)
(1.31343 2.2325e-09 2.24519e-18)
(1.31343 -4.07437e-09 -5.44289e-19)
(1.31343 9.53534e-10 -5.44327e-19)
(1.31343 -5.5719e-09 1.35929e-25)
(1.31343 -6.80374e-10 -1.70219e-18)
(1.31343 -7.16985e-09 1.08941e-18)
(1.31343 -2.04807e-09 1.12345e-18)
(1.31343 -8.15777e-09 5.78748e-19)
(1.31343 -2.45135e-09 1.00391e-24)
(1.31343 -8.36391e-09 5.44703e-19)
(1.31343 -1.10408e-09 -1.12301e-18)
(1.31343 -8.61366e-09 -6.12313e-19)
(1.31343 4.21058e-09 1.12257e-18)
(1.31343 -1.4769e-08 1.02051e-19)
(1.31343 2.52423e-08 -1.12257e-18)
(1.31343 -4.74584e-08 -1.15658e-18)
(1.31343 1.4635e-07 3.4018e-20)
(1.31343 -1.09994e-07 2.24507e-18)
(1.31344 1.06479e-06 1.66697e-18)
(1.31342 5.6709e-07 -1.70058e-18)
(1.31347 6.22339e-06 -1.12285e-18)
(1.31337 2.25798e-07 -5.44565e-19)
(1.31347 -2.30535e-05 2.33182e-18)
(1.09075 -0.254155 -4.45838e-18)
(1.21846 -0.129002 1.3853e-18)
(1.18604 -0.0491463 2.10097e-18)
(1.20148 -0.0142074 5.9657e-19)
(1.19214 -0.00333481 2.54264e-20)
(1.19527 -0.000824529 3.7796e-20)
(1.19357 -7.58577e-05 -1.11686e-18)
(1.19425 -2.81236e-05 5.11319e-19)
(1.19393 1.38606e-05 4.92744e-34)
(1.19407 -1.43638e-06 5.4466e-19)
(1.19401 2.88692e-06 1.1224e-18)
(1.19404 -4.8958e-07 -1.63313e-18)
(1.19403 4.3114e-07 -1.63293e-18)
(1.19403 -1.24942e-07 1.08869e-18)
(1.19403 6.04526e-08 5.10306e-19)
(1.19403 -2.19065e-08 -2.21135e-18)
(1.19403 3.88257e-09 5.44329e-19)
(1.19403 -2.26125e-09 1.12268e-18)
(1.19403 -4.81732e-09 -5.10308e-19)
(1.19403 1.0234e-09 5.4452e-19)
(1.19403 -5.50362e-09 4.04676e-25)
(1.19403 2.25568e-09 -1.08866e-18)
(1.19403 -4.71294e-09 5.44327e-19)
(1.19403 3.24744e-09 5.44327e-19)
(1.19403 -3.98451e-09 -5.44327e-19)
(1.19403 3.63776e-09 -5.44327e-19)
(1.19403 -4.01153e-09 -1.667e-18)
(1.19403 3.09283e-09 1.08865e-18)
(1.19403 -5.02693e-09 5.44327e-19)
(1.19403 1.58577e-09 -5.78347e-19)
(1.19403 -6.82514e-09 -5.44435e-19)
(1.19403 -3.96837e-10 -5.10561e-19)
(1.19403 -8.72244e-09 5.78722e-19)
(1.19403 -2.0642e-09 5.44706e-19)
(1.19403 -9.96983e-09 5.1066e-19)
(1.19403 -2.57036e-09 -5.78747e-19)
(1.19403 -1.02007e-08 5.78745e-19)
(1.19403 -9.62797e-10 -5.44509e-19)
(1.19403 -1.06116e-08 -5.10298e-19)
(1.19403 5.44931e-09 1.12265e-18)
(1.19403 -1.81521e-08 4.76275e-19)
(1.19403 3.10429e-08 -1.66697e-18)
(1.19403 -5.99301e-08 -1.63293e-18)
(1.19403 1.72929e-07 1.08865e-18)
(1.19403 -1.66078e-07 2.21121e-18)
(1.19404 1.2191e-06 1.63305e-18)
(1.19401 4.45273e-07 -1.63272e-18)
(1.19406 7.71835e-06 -1.05495e-18)
(1.19397 6.95913e-07 -5.78763e-19)
(1.19407 -2.93491e-05 5.95269e-19)
(1.05489 -0.288824 4.6666e-18)
(1.12459 -0.131198 7.70081e-19)
(1.05057 -0.046074 2.3567e-18)
(1.05566 -0.0129425 7.81906e-21)
(1.04366 -0.00283873 1.61956e-18)
(1.04606 -0.000724146 5.52512e-19)
(1.04435 -4.30163e-05 -2.20673e-18)
(1.04498 -2.70166e-05 5.79623e-19)
(1.04468 1.5479e-05 -3.39653e-20)
(1.04481 -2.18314e-06 -1.22708e-22)
(1.04476 3.04319e-06 1.12257e-18)
(1.04478 -6.35298e-07 -1.12287e-18)
(1.04477 4.65663e-07 -1.70113e-18)
(1.04478 -1.46399e-07 1.12281e-18)
(1.04478 6.67973e-08 5.78398e-19)
(1.04478 -2.44555e-08 -2.21155e-18)
(1.04478 4.05671e-09 1.12278e-18)
(1.04478 -2.203e-09 1.08875e-18)
(1.04478 -5.67592e-09 -1.12278e-18)
(1.04478 1.49743e-09 5.44496e-19)
(1.04478 -6.42398e-09 4.72104e-26)
(1.04478 2.87421e-09 -1.08875e-18)
(1.04478 -5.52701e-09 5.44375e-19)
(1.04478 3.9771e-09 5.44375e-19)
(1.04478 -4.69232e-09 -5.44375e-19)
(1.04478 4.48351e-09 -5.44375e-19)
(1.04478 -4.66758e-09 -1.66715e-18)
(1.04478 3.85072e-09 1.08875e-18)
(1.04478 -5.78402e-09 5.78398e-19)
(1.04478 2.24048e-09 -5.44375e-19)
(1.04478 -7.69801e-09 -5.78444e-19)
(1.04478 8.47243e-11 -5.44534e-19)
(1.04478 -9.77248e-09 5.44659e-19)
(1.04478 -1.77066e-09 5.44708e-19)
(1.04478 -1.11779e-08 5.7875e-19)
(1.04478 -2.35252e-09 -5.44703e-19)
(1.04478 -1.14461e-08 5.44702e-19)
(1.04478 -5.91421e-10 -5.44532e-19)
(1.04478 -1.19218e-08 -5.44363e-19)
(1.04478 6.63619e-09 1.08873e-18)
(1.04478 -2.05883e-08 5.44363e-19)
(1.04478 3.52454e-08 -1.66711e-18)
(1.04478 -7.00036e-08 -1.6671e-18)
(1.04478 1.88354e-07 1.12276e-18)
(1.04477 -2.26901e-07 2.21141e-18)
(1.04478 1.26962e-06 1.70126e-18)
(1.04476 1.59011e-07 -1.6669e-18)
(1.04481 8.78166e-06 -1.15747e-18)
(1.04472 1.68661e-06 -5.44799e-19)
(1.04481 -3.40755e-05 1.77278e-18)
(0.988638 -0.304593 -5.30972e-18)
(0.993335 -0.119176 5.64403e-19)
(0.881294 -0.0370857 2.23679e-18)
(0.878343 -0.0101362 5.65191e-19)
(0.86504 -0.00200224 1.14922e-18)
(0.86689 -0.000549707 -5.5438e-19)
(0.865272 -4.91467e-06 -1.14803e-18)
(0.865848 -2.43914e-05 3.41192e-20)
(0.865584 1.55817e-05 3.30798e-20)
(0.865706 -2.89729e-06 5.44509e-19)
(0.865655 2.92133e-06 -5.4442e-19)
(0.865678 -7.40631e-07 -5.78436e-19)
(0.865669 4.59023e-07 -5.78427e-19)
(0.865673 -1.55374e-07 5.78458e-19)
(0.865671 6.61637e-08 1.12289e-18)
(0.865672 -2.37588e-08 -1.15693e-18)
(0.865672 2.7199e-09 1.1229e-18)
(0.865672 -5.21563e-10 3.40271e-20)
(0.865672 -7.17172e-09 -1.70136e-18)
(0.865672 3.26279e-09 5.7846e-19)
(0.865672 -7.90761e-09 -3.44386e-26)
(0.865672 4.68007e-09 -6.12487e-19)
(0.865672 -6.99307e-09 3.4027e-20)
(0.865672 5.80439e-09 3.4027e-20)
(0.865672 -6.12774e-09 -5.78459e-19)
(0.865672 6.23888e-09 -3.4027e-20)
(0.865672 -6.12237e-09 -1.12289e-18)
(0.865672 5.70716e-09 6.12487e-19)
(0.865672 -7.14023e-09 5.44432e-19)
(0.865672 4.06315e-09 -8.56565e-32)
(0.865672 -9.05657e-09 -1.97009e-26)
(0.865672 1.90026e-09 -6.1254e-19)
(0.865672 -1.10988e-08 -7.65268e-25)
(0.865672 1.14907e-10 3.4041e-20)
(0.865672 -1.23945e-08 1.12345e-18)
(0.865672 -4.4884e-10 5.44702e-19)
(0.865672 -1.26815e-08 -5.447e-19)
(0.865672 1.32264e-09 -1.12315e-18)
(0.865672 -1.3216e-08 -1.1569e-18)
(0.865672 8.6696e-09 1.12287e-18)
(0.865672 -2.24148e-08 1.73534e-18)
(0.865672 3.80529e-08 -1.12287e-18)