/*--------------------------------*- C++ -*----------------------------------*\
| =========                 |                                                 |
| \\      /  F ield         | OpenFOAM: The Open Source CFD Toolbox           |
|  \\    /   O peration     | Version:  v2112                                 |
|   \\  /    A nd           | Website:  www.openfoam.com                      |
|    \\/     M anipulation  |                                                 |
\*---------------------------------------------------------------------------*/
FoamFile
{
    version     2.0;
    format      ascii;
    class       volScalarField;
    location    "0";
    object      moment.2.populationBalance;
}
// * * * * * * * * * * * * * * * * * * * * * * * * * * * * * * * * * * * * * //

dimensions      [0 -1 0 0 0 0 0];

internalField   nonuniform List<scalar> 
100
(
0
2.91470994077e-10
1.49304894142e-06
5.97033623197e-05
0.000472617133323
0.00178720889102
0.00452778144745
0.00899796257305
0.0152511459968
0.0231490336108
0.0324388992385
0.0428187468915
0.053982493627
0.065646976009
0.0775654148948
0.0895319304036
0.101380713919
0.112982370996
0.124239045251
0.135079277939
0.145453119861
0.155327737081
0.164683588757
0.173511164634
0.181808223694
0.189577455482
0.196824480383
0.203556107396
0.2097787741
0.215497101647
0.220712507651
0.225421832865
0.229615956189
0.233278401298
0.236383983784
0.238897620174
0.240773532681
0.241955252115
0.242377059964
0.241967820466
0.240658494748
0.238394864278
0.235156768941
0.230983703687
0.22600235437
0.220442126454
0.214609638382
0.208792346826
0.203142099978
0.19769283317
0.192453649602
0.187433376618
0.182640720128
0.178064170941
0.173604118165
0.169082287541
0.164345672672
0.15932787059
0.154046133352
0.148572041342
0.143001634531
0.137433857546
0.131957850904
0.126646935918
0.121556874895
0.11672650252
0.11217944628
0.107926160959
0.103965856097
0.100288120173
0.0968741790081
0.0936978013809
0.090725906464
0.0879189515162
0.0852311942585
0.0826109382473
0.0800008841163
0.0773387255889
0.0745581460212
0.0715903870203
0.0683665723043
0.0648209728037
0.0608953862092
0.0565447653192
0.0517441482783
0.0464967943579
0.0408431716468
0.0348700202521
0.0287180514247
0.0225858628824
0.0167263287684
0.0114302224934
0.00699080985617
0.00364439187671
0.00148933706436
0.000407511586056
5.32358677059e-05
1.37612089454e-06
2.77591592658e-10
0
)
;

boundaryField
{
    left
    {
        type            cyclic;
    }
    right
    {
        type            cyclic;
    }
    frontAndBack
    {
        type            empty;
    }
}


// ************************************************************************* //
