/*--------------------------------*- C++ -*----------------------------------*\
| =========                 |                                                 |
| \\      /  F ield         | OpenFOAM: The Open Source CFD Toolbox           |
|  \\    /   O peration     | Version:  v2112                                 |
|   \\  /    A nd           | Website:  www.openfoam.com                      |
|    \\/     M anipulation  |                                                 |
\*---------------------------------------------------------------------------*/
FoamFile
{
    version     2.0;
    format      ascii;
    class       volScalarField;
    location    "0";
    object      moment.3.populationBalance;
}
// * * * * * * * * * * * * * * * * * * * * * * * * * * * * * * * * * * * * * //

dimensions      [0 0 0 0 0 0 0];

internalField   nonuniform List<scalar> 
100
(
0
2.14993989844e-10
1.10434464379e-06
4.42438369256e-05
0.000350609429006
0.00132617342201
0.0033580477379
0.00666504148181
0.0112749571547
0.0170691245087
0.0238417606852
0.0313504182514
0.0393511995458
0.0476199152514
0.0559626592549
0.0642193208733
0.0722628400896
0.0799961847809
0.0873483323769
0.0942700264044
0.100729732069
0.106709994939
0.112204274634
0.117214250863
0.121747560603
0.125815908085
0.129433484464
0.132615635746
0.135377722713
0.137734123474
0.139697337464
0.141277159612
0.142479906296
0.143307692863
0.143757789354
0.143822121599
0.143487045331
0.142733608679
0.141538638582
0.139877136838
0.13772662604
0.135074167281
0.131926591938
0.128323642789
0.124351412553
0.120148497359
0.115889726964
0.111732997761
0.107758428394
0.103981226113
0.100403078058
0.0970254542254
0.0938497307815
0.0908669790169
0.0880239176901
0.0852289655212
0.0824051019167
0.0795195865019
0.0765810591917
0.0736240196562
0.0706937165295
0.0678356256763
0.0650895270183
0.0624869366761
0.0600506023295
0.0577950812793
0.0557277599355
0.0538499382026
0.0521577809544
0.0506430489013
0.0492935844817
0.0480935631314
0.0470235393998
0.0460603295005
0.045176782419
0.0443415038553
0.0435186127668
0.0426676296219
0.041743618198
0.0406977272644
0.0394783019405
0.0380327524174
0.0363103734263
0.0342662914988
0.0318666641555
0.0290951439369
0.0259604184867
0.0225042998726
0.0188093024288
0.0150038562378
0.0112622266848
0.00779496136359
0.00482474626287
0.00254325714878
0.00105000153658
0.000289981017632
3.81996314926e-05
9.94774720202e-07
2.0196447475e-10
0
)
;

boundaryField
{
    left
    {
        type            cyclic;
    }
    right
    {
        type            cyclic;
    }
    frontAndBack
    {
        type            empty;
    }
}


// ************************************************************************* //
