/*--------------------------------*- C++ -*----------------------------------*\
| =========                 |                                                 |
| \\      /  F ield         | OpenFOAM: The Open Source CFD Toolbox           |
|  \\    /   O peration     | Version:  v2112                                 |
|   \\  /    A nd           | Website:  www.openfoam.com                      |
|    \\/     M anipulation  |                                                 |
\*---------------------------------------------------------------------------*/
FoamFile
{
    version     2.0;
    format      ascii;
    class       volScalarField;
    location    "0";
    object      moment.1.populationBalance;
}
// * * * * * * * * * * * * * * * * * * * * * * * * * * * * * * * * * * * * * //

dimensions      [0 -2 0 0 0 0 0];

internalField   nonuniform List<scalar> 
100
(
0
4.17491647269e-10
2.12956265783e-06
8.48863101568e-05
0.00067052009836
0.00253258144281
0.00641449089203
0.0127553564187
0.0216513853629
0.0329377701582
0.0462945023075
0.0613344035403
0.0776634312609
0.0949162832799
0.112773889942
0.130969110694
0.149285498986
0.167552469488
0.185638967864
0.203446864775
0.22090471763
0.237962185977
0.25458517769
0.270751689132
0.286448245654
0.301666824792
0.316402138042
0.330649149297
0.344400714156
0.35764523255
0.370364217909
0.382529702274
0.394101423679
0.405023789287
0.415222689587
0.424602377529
0.433042852235
0.440398538989
0.446499575729
0.45115772102
0.454179733054
0.455391779334
0.454678317398
0.452036293083
0.447637029958
0.441868205494
0.435294956899
0.428471835452
0.421699019437
0.415043305755
0.408521670141
0.402150975679
0.395948197177
0.389886319162
0.383742062025
0.37710825181
0.369621352999
0.361105280887
0.351574491313
0.341174668304
0.330117908977
0.318633587661
0.306937627556
0.295216429929
0.283620628749
0.272264651811
0.261229270797
0.250565369712
0.240297924118
0.230429686989
0.220944386366
0.211809418943
0.202978121143
0.194391748715
0.185981318762
0.177669477238
0.16937255746
0.161002994701
0.152472259814
0.143694470874
0.134590834343
0.125095052637
0.115159806172
0.104764362794
0.0939232641946
0.0826958523834
0.0711960743582
0.0596014610111
0.0481593175394
0.0371868921442
0.0270605947673
0.0181874790691
0.0109511377623
0.00562641902471
0.00226860312397
0.00061314471198
7.92124924163e-05
2.02733507209e-06
4.05385098026e-10
0
)
;

boundaryField
{
    left
    {
        type            cyclic;
    }
    right
    {
        type            cyclic;
    }
    frontAndBack
    {
        type            empty;
    }
}


// ************************************************************************* //
