/*--------------------------------*- C++ -*----------------------------------*\
| =========                 |                                                 |
| \\      /  F ield         | OpenFOAM: The Open Source CFD Toolbox           |
|  \\    /   O peration     | Version:  v2112                                 |
|   \\  /    A nd           | Website:  www.openfoam.com                      |
|    \\/     M anipulation  |                                                 |
\*---------------------------------------------------------------------------*/
FoamFile
{
    version     2.0;
    format      ascii;
    class       volScalarField;
    location    "0";
    object      moment.4.populationBalance;
}
// * * * * * * * * * * * * * * * * * * * * * * * * * * * * * * * * * * * * * //

dimensions      [0 1 0 0 0 0 0];

internalField   nonuniform List<scalar> 
100
(
0
1.6510636153e-10
8.49682995444e-07
3.40799507392e-05
0.000270179794339
0.00102167571737
0.00258461224753
0.0051219103232
0.00864574209009
0.0130529196725
0.0181722100091
0.0238047082723
0.0297521047118
0.0358336784284
0.0418947412675
0.0478093403138
0.0534794806704
0.0588324781347
0.0638174938879
0.0684018891448
0.0725677549027
0.0763087904961
0.0796275945938
0.0825333694544
0.0850400062699
0.0871645044873
0.0889256735087
0.0903430664224
0.0914360996617
0.0922233182557
0.0927217730435
0.0929464839201
0.0929099725233
0.0926218599395
0.092088541904
0.0913129782021
0.0902946678557
0.0890299307108
0.0875126813989
0.085735960447
0.083694563428
0.0813891367445
0.0788319807463
0.0760542906902
0.0731132389425
0.0700945172303
0.067101859621
0.0642259296759
0.0615102408594
0.0589602456067
0.056573635373
0.0543480700425
0.0522812734656
0.050365398913
0.0485683968645
0.0468378259209
0.0451300158543
0.0434258892803
0.041728840072
0.0400559788147
0.0384298716715
0.0368729379345
0.0354044056711
0.0340390839386
0.032787218996
0.0316548931708
0.0306446199354
0.0297559360214
0.0289858882029
0.0283293703299
0.0277792983709
0.0273266281589
0.0269602296813
0.0266666380983
0.0264297084836
0.0262302106781
0.0260454139782
0.0258487293155
0.0256094991126
0.0252930511977
0.0248611609207
0.0242730912089
0.0234873978068
0.0224646874263
0.0211714868113
0.0195853015308
0.0177007869179
0.015536681264
0.0131427134197
0.0106050407048
0.00804787305304
0.00562787708932
0.00351710010115
0.00187054800713
0.000778595501526
0.000216620520167
2.87246562205e-05
7.52383957027e-07
1.53518631686e-10
0
)
;

boundaryField
{
    left
    {
        type            cyclic;
    }
    right
    {
        type            cyclic;
    }
    frontAndBack
    {
        type            empty;
    }
}


// ************************************************************************* //
