/*--------------------------------*- C++ -*----------------------------------*\
| =========                 |                                                 |
| \\      /  F ield         | OpenFOAM: The Open Source CFD Toolbox           |
|  \\    /   O peration     | Version:  dev                                   |
|   \\  /    A nd           | Web:      www.OpenFOAM.org                      |
|    \\/     M anipulation  |                                                 |
\*---------------------------------------------------------------------------*/
FoamFile
{
    version     2.0;
    format      ascii;
    class       volScalarField;
    location    "0";
    object      moment.3.populationBalance;
}
// * * * * * * * * * * * * * * * * * * * * * * * * * * * * * * * * * * * * * //

dimensions      [0 0 0 0 0 0 0];

internalField   nonuniform List<scalar> 
1000
(
3.1968008e-11
2.87136648e-10
7.96005e-10
1.557043208e-09
2.568724488e-09
3.829525128e-09
5.337924488e-09
7.092405e-09
9.091452168e-09
1.1333554568e-08
1.3817203848e-08
1.6540894728e-08
1.9503125e-08
2.2702395528e-08
2.6137210248e-08
2.9806076168e-08
3.3707503368e-08
3.7840005e-08
4.2202097288e-08
4.6792299528e-08
5.1609134088e-08
5.6651126408e-08
6.1916805e-08
6.7404701448e-08
7.3113350408e-08
7.9041289608e-08
8.5187059848e-08
9.1549205e-08
9.8126272008e-08
1.04916810888e-07
1.11919374728e-07
1.19132519688e-07
1.26554805e-07
1.34184792968e-07
1.42021048968e-07
1.50062141448e-07
1.58306641928e-07
1.66753125e-07
1.75400168328e-07
1.84246352648e-07
1.93290261768e-07
2.02530482568e-07
2.11965605e-07
2.21594222088e-07
2.31414929928e-07
2.41426327688e-07
2.51627017608e-07
2.62015605e-07
2.72590698248e-07
2.83350908808e-07
2.94294851208e-07
3.05421143048e-07
3.16728405e-07
3.28215260808e-07
3.39880337288e-07
3.51722264328e-07
3.63739674888e-07
3.75931205e-07
3.88295493768e-07
4.00831183368e-07
4.13536919048e-07
4.26411349128e-07
4.39453125e-07
4.52660901128e-07
4.66033335048e-07
4.79569087368e-07
4.93266821768e-07
5.07125205e-07
5.21142906888e-07
5.35318600328e-07
5.49650961288e-07
5.64138668808e-07
5.78780405e-07
5.93574855048e-07
6.08520707208e-07
6.23616652808e-07
6.38861386248e-07
6.54253605e-07
6.69792009608e-07
6.85475303688e-07
7.01302193928e-07
7.17271390088e-07
7.33381605e-07
7.49631554568e-07
7.66019957768e-07
7.82545536648e-07
7.99207016328e-07
8.16003125e-07
8.32932593928e-07
8.49994157448e-07
8.67186552968e-07
8.84508520968e-07
9.01958805e-07
9.19536151688e-07
9.37239310728e-07
9.55067034888e-07
9.73018080008e-07
9.91091205e-07
1.00928517185e-06
1.02759874561e-06
1.04603069441e-06
1.06457978945e-06
1.083244805e-06
1.10202451841e-06
1.12091771009e-06
1.13992316353e-06
1.15903966529e-06
1.178266005e-06
1.19760097537e-06
1.21704337217e-06
1.23659199425e-06
1.25624564353e-06
1.276003125e-06
1.29586324673e-06
1.31582481985e-06
1.33588665857e-06
1.35604758017e-06
1.376306405e-06
1.39666195649e-06
1.41711306113e-06
1.43765854849e-06
1.45829725121e-06
1.479028005e-06
1.49984964865e-06
1.52076102401e-06
1.54176097601e-06
1.56284835265e-06
1.584022005e-06
1.60528078721e-06
1.62662355649e-06
1.64804917313e-06
1.66955650049e-06
1.691144405e-06
1.71281175617e-06
1.73455742657e-06
1.75638029185e-06
1.77827923073e-06
1.800253125e-06
1.82230085953e-06
1.84442132225e-06
1.86661340417e-06
1.88887599937e-06
1.911208005e-06
1.93360832129e-06
1.95607585153e-06
1.97860950209e-06
2.00120818241e-06
2.023870805e-06
2.04659628545e-06
2.06938354241e-06
2.09223149761e-06
2.11513907585e-06
2.138105205e-06
2.16112881601e-06
2.18420884289e-06
2.20734422273e-06
2.23053389569e-06
2.253776805e-06
2.27707189697e-06
2.30041812097e-06
2.32381442945e-06
2.34725977793e-06
2.370753125e-06
2.39429343233e-06
2.41787966465e-06
2.44151078977e-06
2.46518577857e-06
2.488903605e-06
2.51266324609e-06
2.53646368193e-06
2.56030389569e-06
2.58418287361e-06
2.608099605e-06
2.63205308225e-06
2.65604230081e-06
2.68006625921e-06
2.70412395905e-06
2.728214405e-06
2.75233660481e-06
2.77648956929e-06
2.80067231233e-06
2.82488385089e-06
2.849123205e-06
2.87338939777e-06
2.89768145537e-06
2.92199840705e-06
2.94633928513e-06
2.970703125e-06
2.99508896513e-06
3.01949584705e-06
3.04392281537e-06
3.06836891777e-06
3.092833205e-06
3.11731473089e-06
3.14181255233e-06
3.16632572929e-06
3.19085332481e-06
3.215394405e-06
3.23994803905e-06
3.26451329921e-06
3.28908926081e-06
3.31367500225e-06
3.338269605e-06
3.36287215361e-06
3.38748173569e-06
3.41209744193e-06
3.43671836609e-06
3.461343605e-06
3.48597225857e-06
3.51060342977e-06
3.53523622465e-06
3.55986975233e-06
3.584503125e-06
3.60913545793e-06
3.63376586945e-06
3.65839348097e-06
3.68301741697e-06
3.707636805e-06
3.73225077569e-06
3.75685846273e-06
3.78145900289e-06
3.80605153601e-06
3.830635205e-06
3.85520915585e-06
3.87977253761e-06
3.90432450241e-06
3.92886420545e-06
3.953390805e-06
3.97790346241e-06
4.00240134209e-06
4.02688361153e-06
4.05134944129e-06
4.075798005e-06
4.10022847937e-06
4.12464004417e-06
4.14903188225e-06
4.17340317953e-06
4.197753125e-06
4.22208091073e-06
4.24638573185e-06
4.27066678657e-06
4.29492327617e-06
4.319154405e-06
4.34335938049e-06
4.36753741313e-06
4.39168771649e-06
4.41580950721e-06
4.439902005e-06
4.46396443265e-06
4.48799601601e-06
4.51245048851e-06
4.54004320103e-06
4.57120005735e-06
4.60589132383e-06
4.64408734759e-06
4.68575855651e-06
4.7308754592e-06
4.779408645e-06
4.83132878402e-06
4.8866066271e-06
4.94521300583e-06
5.00711883254e-06
5.07229510031e-06
5.14071288295e-06
5.21234333504e-06
5.28715769187e-06
5.36512726951e-06
5.44622346475e-06
5.53041775514e-06
5.61768169895e-06
5.70798693523e-06
5.80130518374e-06
5.897608245e-06
5.99686800028e-06
6.09905641159e-06
6.20414552167e-06
6.31210745403e-06
6.4229144129e-06
6.53653868327e-06
6.65295263087e-06
6.77212870217e-06
6.89403942439e-06
7.01865740549e-06
7.14595533418e-06
7.27590597991e-06
7.40848219287e-06
7.54365690401e-06
7.681403125e-06
7.82169394828e-06
7.96450254701e-06
8.10980217511e-06
8.25756616725e-06
8.40776793883e-06
8.56038098599e-06
8.71537888564e-06
8.8727352954e-06
9.03242395367e-06
9.19441867957e-06
9.35869337296e-06
9.52522201447e-06
9.69397866545e-06
9.86493746801e-06
1.0038072645e-05
1.02133585e-05
1.03907694174e-05
1.05702798622e-05
1.07518643802e-05
1.09354975981e-05
1.11211542231e-05
1.13088090433e-05
1.14984369276e-05
1.16900128254e-05
1.1883511767e-05
1.20789088635e-05
1.22761793066e-05
1.2475298369e-05
1.26762414038e-05
1.2878983845e-05
1.30835012075e-05
1.32897690866e-05
1.34977631588e-05
1.37074591809e-05
1.39188329907e-05
1.41318605066e-05
1.4346517728e-05
1.45627807347e-05
1.47806256874e-05
1.50000288277e-05
1.52209664777e-05
1.54434150404e-05
1.56673509994e-05
1.58927509192e-05
1.6119591445e-05
1.63478572993e-05
1.65778933766e-05
1.6809884743e-05
1.70438344077e-05
1.72797645595e-05
1.7517717404e-05
1.77577564785e-05
1.79999684471e-05
1.82444653847e-05
1.84913875656e-05
1.87409067733e-05
1.89932301577e-05
1.92486046652e-05
1.95073220737e-05
1.9769724664e-05
2.00362115654e-05
2.030724581e-05
2.05833621371e-05
2.08651755857e-05
2.11533909146e-05
2.14488128927e-05
2.1752357497e-05
2.20650640596e-05
2.2388108402e-05
2.27228169952e-05
2.30706821817e-05
2.34333784944e-05
2.38127801081e-05
2.42109794524e-05
2.46303070184e-05
2.50733523866e-05
2.55429865009e-05
2.60423852128e-05
2.6575054117e-05
2.71448546975e-05
2.77560317989e-05
2.84132424385e-05
2.91215859691e-05
2.98866356022e-05
3.07144712958e-05
3.16117140127e-05
3.25855613467e-05
3.36438245189e-05
3.47949667351e-05
3.60481429006e-05
3.74132406805e-05
3.89009228936e-05
4.05226712246e-05
4.22908312365e-05
4.42186586639e-05
4.63203669616e-05
4.86111760857e-05
5.11073624761e-05
5.38263102121e-05
5.67865633045e-05
6.00078790907e-05
6.35112826926e-05
6.7319122496e-05
7.14551266084e-05
7.59444602473e-05
8.08137840121e-05
8.6091312986e-05
9.18068766155e-05
9.79919793101e-05
0.000104679861704
0.000111905562518
0.000119705980959
0.00012811993959
0.0001371882476
0.000146953764413
0.000157461463548
0.000168758496669
0.000180894257741
0.000193920447215
0.000207891136159
0.000222862830253
0.000238894533568
0.000256047812034
0.000274386856514
0.000293978545392
0.000314892506589
0.000337201178903
0.00036097987259
0.000386306829088
0.000413263279779
0.000441933503701
0.000472404884111
0.000504767963795
0.000539116499019
0.000575547512042
0.000614161342061
0.000655061694511
0.000698355688602
0.000744153902997
0.000792570419528
0.000843722864854
0.000897732449943
0.000954724007295
0.00101482602579
0.00107817068309
0.00114489387543
0.00121513524476
0.00128903820317
0.00136674995438
0.00144842151231
0.00153420771659
0.00162426724494
0.0017187626223
0.00181786022664
0.00192173029137
0.00203054690422
0.0021444880026
0.0022637353652
0.0023884746
0.00251889512831
0.00265519016499
0.00279755669475
0.00294619544434
0.00310131085067
0.00326311102485
0.00343180771188
0.00360761624618
0.00379075550274
0.00398144784393
0.00417991906184
0.00438639831619
0.00460111806779
0.00482431400733
0.00505622497977
0.00529709290395
0.0055471626878
0.00580668213867
0.00607590186922
0.00635507519853
0.00664445804855
0.00694430883588
0.00725488835893
0.00757645968033
0.00790928800472
0.00825364055191
0.00860978642541
0.00897799647631
0.00935854316267
0.00975170040429
0.010157743433
0.0105769486386
0.01100959341
0.0114559559725
0.0119163152207
0.0123909505464
0.0128801416633
0.0133841684272
0.0139033106518
0.0144378479211
0.0149880593974
0.015554223626
0.0161366183358
0.0167355202362
0.0173512048109
0.0179839461078
0.0186340165264
0.0193016866006
0.0199872247797
0.0206908972063
0.0214129674902
0.0221536964811
0.0229133420378
0.0236921587951
0.0244903979288
0.0253083069177
0.0261461293044
0.027004104454
0.0278824673108
0.0287814481536
0.02970127235
0.0306421601087
0.0316043262313
0.0325879798629
0.0335933242423
0.0346205564515
0.0356698671643
0.0367414403958
0.0378354532506
0.0389520756725
0.0400914701932
0.0412537916826
0.0424391870997
0.0436477952435
0.0448797465062
0.0461351626273
0.0474141564486
0.0487168316722
0.0500432826191
0.0513935939906
0.0527678406322
0.0541660872995
0.0555883884268
0.0570347878996
0.058505318829
0.0600000033299
0.0615188523032
0.0630618652211
0.0646290299168
0.0662203223777
0.0678357065443
0.0694751341119
0.0711385443386
0.0728258638575
0.074537006494
0.0762718730889
0.0780303513269
0.0798123155706
0.0816176267009
0.0834461319634
0.0852976648207
0.0871720448122
0.0890690774196
0.0909885539397
0.0929302513647
0.0948939322694
0.0968793447052
0.0988862221034
0.100914283184
0.102963231876
0.105032757239
0.107122533403
0.109232219508
0.111361459657
0.113509882873
0.115677103072
0.11786271904
0.120066314419
0.122287457703
0.124525702246
0.126780586277
0.129051632924
0.131338350248
0.133640231292
0.135956754129
0.138287381933
0.140631563052
0.142988731091
0.145358305008
0.147739689224
0.150132273733
0.152535434234
0.154948532265
0.157370915352
0.159801917171
0.162240857709
0.164687043455
0.167139767581
0.169598310151
0.172061938328
0.174529906599
0.177001457011
0.179475819412
0.181952211711
0.184429840137
0.186907899523
0.18938557359
0.191862035244
0.194336446886
0.196807960732
0.199275719138
0.201738854945
0.204196491824
0.20664774464
0.209091719819
0.211527515728
0.213954223066
0.216370925263
0.218776698886
0.221170614063
0.223551734903
0.225919119939
0.228271822568
0.23060889151
0.232929371265
0.235232302591
0.237516722975
0.239781667126
0.242026167469
0.244249254645
0.246449958021
0.24862730621
0.25078032759
0.252908050836
0.255009505459
0.257083722341
0.259129734293
0.261146576601
0.263133287587
0.265088909173
0.267012487452
0.268903073254
0.270759722731
0.272581497928
0.274367467377
0.276116706673
0.277828299072
0.279501336076
0.281134918031
0.282728154721
0.284280165961
0.2857900822
0.287257045113
0.288680208203
0.290058737396
0.291391811639
0.292678623495
0.293918379737
0.295110301941
0.296253627076
0.297347608093
0.298391514505
0.299384632971
0.300326267874
0.301215741888
0.302052396552
0.302835592827
0.303564711655
0.304239154511
0.304858343944
0.305421724113
0.305928761322
0.306378944535
0.306771785892
0.307106821216
0.307383610501
0.307601738406
0.307760814723
0.307860474846
0.307900380224
0.307897272565
0.307882400551
0.307856445793
0.307819409692
0.307771294245
0.307712102051
0.307641836305
0.307560500802
0.307468099934
0.307364638692
0.307250122667
0.307124558047
0.306987951618
0.306840310766
0.306681643474
0.306511958326
0.306331264501
0.30613957178
0.30593689054
0.305723231757
0.305498607007
0.305263028463
0.305016508896
0.304759061678
0.304490700776
0.304211440759
0.303921296792
0.30362028464
0.303308420666
0.302985721831
0.302652205695
0.302307890416
0.301952794753
0.301586938059
0.301210340289
0.300823021996
0.30042500433
0.300016309041
0.299596958477
0.299166975585
0.298726383909
0.298275207594
0.29781347138
0.29734120061
0.296858421221
0.296365159751
0.295861443337
0.295347299712
0.294822757211
0.294287844764
0.293742591902
0.293187028753
0.292621186044
0.292045095102
0.291458787849
0.29086229681
0.290255655104
0.289638896452
0.289012055172
0.28837516618
0.287728264991
0.28707138772
0.286404571078
0.285727852376
0.285041269524
0.284344861028
0.283638665995
0.282922724131
0.282197075737
0.281461761717
0.280716823569
0.279962303393
0.279198243887
0.278424688345
0.277641680662
0.276849265331
0.276047487443
0.275236392688
0.274416027354
0.273586438328
0.272747673096
0.271899779741
0.271042806945
0.270176803989
0.269301820753
0.268417907714
0.26752511595
0.266623497133
0.265713103539
0.264793988039
0.263866204103
0.2629298058
0.261984847798
0.261031385362
0.260069474356
0.259099171245
0.258120533089
0.257133617547
0.25613848288
0.255135187943
0.254123792191
0.25310435568
0.25207693906
0.251041603585
0.249998411101
0.248947424059
0.247888705504
0.246822319081
0.245748329033
0.244666800204
0.243577798032
0.242481388558
0.241377638419
0.240266614851
0.239148385688
0.238023019363
0.236890584908
0.235751151954
0.234604790728
0.233451572057
0.232291567368
0.231124848685
0.229951488629
0.228771560423
0.227585137885
0.226392295434
0.225193108086
0.223987651457
0.222776001761
0.221558235808
0.220334431011
0.219104665378
0.217869017517
0.216627566634
0.215380392533
0.214127575619
0.212869196892
0.211605337953
0.210336081001
0.209061508832
0.207781704843
0.206496753028
0.205206737979
0.203911744887
0.202611859544
0.201307168336
0.19999775825
0.198683716872
0.197365132386
0.196042093574
0.194714689816
0.193383011093
0.192047147981
0.190707191657
0.189363233896
0.188015367072
0.186663684155
0.185308278717
0.183949244926
0.18258667755
0.181220671954
0.179851324104
0.178478730561
0.177102988487
0.175724195642
0.174342450385
0.172957851672
0.171570499059
0.170180492699
0.168787933346
0.16739292235
0.16599556166
0.164595953825
0.163194201991
0.161790409902
0.160384681903
0.158977122936
0.15756783854
0.156156934855
0.154744518618
0.153330697166
0.151915578433
0.150499270951
0.149081883853
0.147663526868
0.146244310326
0.144824345152
0.143403742873
0.141982615613
0.140561076094
0.139139237637
0.137717214162
0.136295120187
0.134873070828
0.133451181802
0.13202956942
0.130608350597
0.129187642841
0.127767564262
0.126348233568
0.124929770065
0.123512293658
0.12209592485
0.120680784742
0.119266995035
0.117854678027
0.116443956615
0.115034954296
0.113627795163
0.11222260391
0.110819505826
0.109418626803
0.108020093328
0.106624032488
0.105230571969
0.103839840053
0.102451965624
0.101067078162
0.0996853077463
0.0983067850547
0.0969316413636
0.0955600085477
0.0941920190803
0.0928278060332
0.0914675030768
0.0901112444799
0.0887591651098
0.0874114004324
0.0860680865119
0.0847293600113
0.0833953581919
0.0820662189136
0.0807420806347
0.0794230824122
0.0781093639013
0.0768010653561
0.0754983276289
0.0742012921706
0.0729101010307
0.071624896857
0.070345822896
0.0690730229926
0.0678066415903
0.0665468237311
0.0652937150552
0.0640474618019
0.0628082108084
0.0615761095109
0.0603513059437
0.0591339487399
0.0579241871309
0.0567221709469
0.0555280506162
0.054341977166
0.0531641022216
0.0519945780073
0.0508335573455
0.0496811936572
0.0485376409621
0.0474030538782
0.046277587622
0.0451613980086
0.0440546414517
0.0429574749632
0.0418700561539
0.0407925432328
0.0397250950075
0.0386678708842
0.0376210308674
0.0365847355603
0.0355591461646
0.0345444244804
0.0335407329063
0.0325482344395
0.0315670926757
0.0305974718091
0.0296395366322
0.0286934525364
0.0277593855114
0.0268375021452
0.0259279696247
0.025030955735
0.0241466288599
0.0232751579816
0.0224167126809
0.0215714631369
0.0207395801275
0.0199212350289
0.0191165998159
0.0183258470617
0.0175491499382
0.0167866822155
0.0160386182626
0.0153051330467
0.0145864021336
0.0138826016876
0.0131939084716
0.0125204998469
0.0118625537733
0.0112202488092
0.0105937641114
0.00998327943528
0.0093889751347
0.00881103216204
0.00824963206818
0.0077049570025
0.0071771897129
0.00666651354577
0.00617311244602
0.00569717095708
0.00523887422085
0.00479840797776
0.00437595856676
0.00397171292529
0.00358585858929
0.00321858369322
0.00287007697004
0.00254052775123
0.00223012596677
0.00193906214512
0.0016675274133
0.0014157134968
0.00118381271962
0.000972018004271
0.00078052287178
0.000609521441672
0.000459208431979
0.000329779159243
0.000221429538512
0.00013435608334
6.87559057885e-05
2.48267164275e-05
2.76682433235e-06
)
;

boundaryField
{
    left
    {
        type            cyclic;
    }
    right
    {
        type            cyclic;
    }
    frontAndBack
    {
        type            empty;
    }
}


// ************************************************************************* //
