/*--------------------------------*- C++ -*----------------------------------*\
| =========                 |                                                 |
| \\      /  F ield         | OpenFOAM: The Open Source CFD Toolbox           |
|  \\    /   O peration     | Version:  dev                                   |
|   \\  /    A nd           | Web:      www.OpenFOAM.org                      |
|    \\/     M anipulation  |                                                 |
\*---------------------------------------------------------------------------*/
FoamFile
{
    version     2.0;
    format      ascii;
    class       volScalarField;
    location    "0";
    object      moment.0.populationBalance;
}
// * * * * * * * * * * * * * * * * * * * * * * * * * * * * * * * * * * * * * //

dimensions      [0 -3 0 0 0 0 0];

internalField   nonuniform List<scalar> 
1000
(
3.996001e-06
3.5892081e-05
9.9500625e-05
0.000194630401
0.000321090561
0.000478690641
0.000667240561
0.000886550625
0.001136431521
0.001416694321
0.001727150481
0.002067611841
0.002437890625
0.002837799441
0.003267151281
0.003725759521
0.004213437921
0.004730000625
0.005275262161
0.005849037441
0.006451141761
0.007081390801
0.007739600625
0.008425587681
0.009139168801
0.009880161201
0.010648382481
0.011443650625
0.012265784001
0.013114601361
0.013989921841
0.014891564961
0.015819350625
0.016773099121
0.017752631121
0.018757767681
0.019788330241
0.020844140625
0.021925021041
0.023030794081
0.024161282721
0.025316310321
0.026495700625
0.027699277761
0.028926866241
0.030178290961
0.031453377201
0.032751950625
0.034073837281
0.035418863601
0.036786856401
0.038177642881
0.039591050625
0.041026907601
0.042485042161
0.043965283041
0.045467459361
0.046991400625
0.048536936721
0.050103897921
0.051692114881
0.053301418641
0.054931640625
0.056582612641
0.058254166881
0.059946135921
0.061658352721
0.063390650625
0.065142863361
0.066914825041
0.068706370161
0.070517333601
0.072347550625
0.074196856881
0.076065088401
0.077952081601
0.079857673281
0.081781700625
0.083724001201
0.085684412961
0.087662774241
0.089658923761
0.091672700625
0.093703944321
0.095752494721
0.097818192081
0.099900877041
0.102000390625
0.104116574241
0.106249269681
0.108398319121
0.110563565121
0.112744850625
0.114942018961
0.117154913841
0.119383379361
0.121627260001
0.123886400625
0.126160646481
0.128449843201
0.130753836801
0.133072473681
0.135405600625
0.137753064801
0.140114713761
0.142490395441
0.144879958161
0.147283250625
0.149700121921
0.152130421521
0.154573999281
0.157030705441
0.159500390625
0.161982905841
0.164478102481
0.166985832321
0.169505947521
0.172038300625
0.174582744561
0.177139132641
0.179707318561
0.182287156401
0.184878500625
0.187481206081
0.190095128001
0.192720122001
0.195356044081
0.198002750625
0.200660098401
0.203327944561
0.206006146641
0.208694562561
0.211393050625
0.214101469521
0.216819678321
0.219547536481
0.222284903841
0.225031640625
0.227787607441
0.230552665281
0.233326675521
0.236109499921
0.238901000625
0.241701040161
0.244509481441
0.247326187761
0.250151022801
0.252983850625
0.255824535681
0.258672942801
0.261528937201
0.264392384481
0.267263150625
0.270141102001
0.273026105361
0.275918027841
0.278816736961
0.281722100625
0.284633987121
0.287552265121
0.290476803681
0.293407472241
0.296344140625
0.299286679041
0.302234958081
0.305188848721
0.308148222321
0.311112950625
0.314082905761
0.317057960241
0.320037986961
0.323022859201
0.326012450625
0.329006635281
0.332005287601
0.335008282401
0.338015494881
0.341026800625
0.344042075601
0.347061196161
0.350084039041
0.353110481361
0.356140400625
0.359173674721
0.362210181921
0.365249800881
0.368292410641
0.371337890625
0.374386120641
0.377436980881
0.380490351921
0.383546114721
0.386604150625
0.389664341361
0.392726569041
0.395790716161
0.398856665601
0.401924300625
0.404993504881
0.408064162401
0.411136157601
0.414209375281
0.417283700625
0.420359019201
0.423435216961
0.426512180241
0.429589795761
0.432667950625
0.435746532321
0.438825428721
0.441904528081
0.444983719041
0.448062890625
0.451141932241
0.454220733681
0.457299185121
0.460377177121
0.463454600625
0.466531346961
0.469607307841
0.472682375361
0.475756442001
0.478829400625
0.481901144481
0.484971567201
0.488040562801
0.491108025681
0.494173850625
0.497237932801
0.500300167761
0.503360451441
0.506418680161
0.509474750625
0.512528559921
0.515580005521
0.518628985281
0.521675397441
0.524719140625
0.527760113841
0.530798216481
0.533833348321
0.536865409521
0.539894300625
0.542919922561
0.545942176641
0.548960964561
0.551976188401
0.554987750625
0.557995554081
0.560999502001
0.564006599634
0.567059190337
0.570163845193
0.573320016286
0.576527157297
0.579784723506
0.583092171791
0.586448960625
0.589854550081
0.593308401829
0.596809979137
0.600358746869
0.603954171489
0.607595721057
0.611282865231
0.615015075266
0.618791824017
0.622612585934
0.626476837065
0.630384055057
0.634333719154
0.638325310197
0.642358310625
0.646432204475
0.650546477382
0.654700616577
0.65889411089
0.663126450748
0.667397128177
0.671705636798
0.676051471832
0.680434130097
0.684853110008
0.689307911577
0.693798036417
0.698322987735
0.702882270336
0.707475390625
0.712101856603
0.716761177868
0.721452865617
0.726176432644
0.730931393341
0.735717263697
0.740533561299
0.745379805332
0.750255516577
0.755160217415
0.760093431823
0.765054685377
0.770043505249
0.775059420209
0.780101960625
0.785170658463
0.790265047287
0.795384662257
0.800529040132
0.805697719267
0.810890239617
0.816106142733
0.821344971764
0.826606271457
0.831889588156
0.837194469803
0.842520465937
0.847867127696
0.853234007815
0.858620660625
0.864026642057
0.86945150964
0.874894822497
0.880356141352
0.885835028526
0.891331047937
0.8968437651
0.90237274713
0.907917562737
0.91347778223
0.919052977515
0.924642722097
0.930246591077
0.935864161154
0.941495010625
0.947139718885
0.952843697576
0.958630945622
0.964500402951
0.970451013033
0.976481722877
0.982591483036
0.988779247604
0.995043974217
1.00138462405
1.00780016183
1.0142895558
1.02085177778
1.02748580311
1.03419061066
1.04096518288
1.04780850572
1.05471956871
1.06169736488
1.06874089083
1.07584914671
1.08302113618
1.09025586646
1.09755234831
1.10490959604
1.11232662749
1.11980246404
1.12733613062
1.1349266557
1.14257307129
1.15027441293
1.15802971973
1.16583803432
1.17369840286
1.18160987509
1.18957150426
1.19758234717
1.20564146417
1.21374791913
1.22190077949
1.23009911621
1.23834200381
1.24662852032
1.25495774736
1.26332877004
1.27174067705
1.2801925606
1.28868351645
1.29721264391
1.30577904581
1.31438182854
1.32302010203
1.33169297974
1.34039957868
1.3491390194
1.35791042599
1.3667129261
1.37554565088
1.38440773507
1.39329831691
1.40221653822
1.41116154432
1.42013248411
1.42912851001
1.43814877799
1.44719244755
1.45625868174
1.46534664716
1.47445551395
1.48358445576
1.49273264983
1.50189927691
1.5110835213
1.52028457084
1.52950161691
1.53873385445
1.54798048191
1.5572407013
1.56651371817
1.57579874162
1.58509498428
1.59440166231
1.60371799545
1.61304320694
1.62237652359
1.63171717573
1.64106439725
1.65041742558
1.65977550167
1.66913787004
1.67850377873
1.68787247935
1.69724322701
1.70661528039
1.71598790171
1.72536035673
1.73473191475
1.74410184859
1.75346943466
1.76283395287
1.77219468669
1.78155092312
1.79090195271
1.80024706956
1.80958557129
1.81891675908
1.82823993765
1.83755441524
1.84685950367
1.85615451826
1.86543877791
1.87471160503
1.8839723256
1.89322026911
1.90245476861
1.9116751607
1.92088078551
1.9300709867
1.9392451115
1.94840251066
1.95754253848
1.9666645528
1.975767915
1.98485199
1.99391614627
2.00295975582
2.01198219418
2.02098284046
2.02996107728
2.03891629081
2.04784787077
2.05675521042
2.06563770655
2.07449475951
2.08332577316
2.09213015495
2.10090731582
2.10965667029
2.1183776364
2.12706963574
2.13573209345
2.14436443819
2.15296610218
2.16153652117
2.17007513447
2.1785813849
2.18705471886
2.19549458626
2.20390044057
2.21227173879
2.22060794147
2.22890851269
2.2371729201
2.24540063485
2.25359113167
2.2617438888
2.26985838805
2.27793411476
2.28597055779
2.29396720958
2.30192356609
2.30983912683
2.31771339483
2.32554587669
2.33333608254
2.34108352605
2.34878772443
2.35644819843
2.36406447236
2.37163607405
2.37916253488
2.38664338977
2.39407817719
2.40146643914
2.40880772116
2.41610157234
2.42334754532
2.43054519626
2.43769408487
2.44479377441
2.45184383168
2.45884382702
2.46579333429
2.47269193093
2.47953919789
2.48633471969
2.49307808436
2.49976888349
2.50640671221
2.51299116919
2.51952185665
2.52599838033
2.53242034954
2.53878737711
2.54509907941
2.55135507638
2.55755499147
2.56369845168
2.56978508756
2.57581453319
2.58178642622
2.58770040779
2.59355612264
2.599353219
2.60509134868
2.61077016701
2.61638933287
2.62194850868
2.6274473604
2.63288555754
2.63826277313
2.64357868377
2.64883296959
2.65402531424
2.65915540495
2.66422293247
2.66922759109
2.67416907865
2.67904709652
2.68386134963
2.68861154643
2.69329739894
2.69791862268
2.70247493676
2.70696606379
2.71139172995
2.71575166494
2.72004560202
2.72427327799
2.72843443317
2.73252881145
2.73655616025
2.74051623052
2.74440877677
2.74823355704
2.75199033292
2.75567886953
2.75929893554
2.76285030317
2.76633274816
2.76974604982
2.77308999096
2.77636435798
2.77956894079
2.78270353285
2.78576793116
2.78876193626
2.79168535225
2.79453798674
2.7973196509
2.80003015945
2.80266933064
2.80523698626
2.80773295164
2.81015705566
2.81250913075
2.81478901285
2.81699654147
2.81913155965
2.82119391398
2.82318345459
2.82510003513
2.82694351283
2.82871374843
2.83041060623
2.83203395405
2.83358366328
2.83505960884
2.83646166917
2.83778972629
2.83904366573
2.84022337659
2.84132875148
2.84235968657
2.84331608157
2.84419783974
2.84500486786
2.84573707628
2.84639437885
2.84697669301
2.84748393971
2.84791604345
2.84827293227
2.84855453776
2.84876079504
2.84889164278
2.84894702319
2.84892688201
2.84883116855
2.84865983563
2.84841283962
2.84809014045
2.84769170158
2.84721749
2.84666747625
2.84604163442
2.84533994214
2.84456238056
2.8437089344
2.84277959191
2.84177434488
2.84069318864
2.83953612207
2.83830314758
2.83699427113
2.83560950223
2.8341488539
2.83261234274
2.83099998887
2.82931181595
2.82754785119
2.82570812535
2.82379267271
2.82180153111
2.81973474191
2.81759235005
2.81537440396
2.81308095566
2.81071206068
2.8082677781
2.80574817056
2.80315330421
2.80048324876
2.79773807746
2.79491786711
2.79202269803
2.78905265409
2.78600782272
2.78288829487
2.77969416504
2.77642553127
2.77308249513
2.76966516177
2.76617363983
2.76260804153
2.75896848261
2.75525508237
2.75146796364
2.74760725278
2.74367307972
2.73966557791
2.73558488436
2.73143113959
2.72720448769
2.72290507629
2.71853305655
2.71408858317
2.7095718144
2.70498291204
2.70032204141
2.69558937139
2.69078507439
2.68590932637
2.68096230683
2.6759441988
2.67085518886
2.66569546715
2.66046522731
2.65516466657
2.64979398566
2.64435338888
2.63884308406
2.63326328256
2.62761419931
2.62189605276
2.6161090649
2.61025346127
2.60432947097
2.5983373266
2.59227726433
2.58614952387
2.57995434846
2.5736919849
2.56736268351
2.56096669816
2.55450428628
2.54797570881
2.54138123025
2.53472111864
2.52799564556
2.52120508613
2.51434971901
2.50742982642
2.50044569409
2.49339761132
2.48628587093
2.4791107693
2.47187260634
2.4645716855
2.45720831379
2.44978280173
2.44229546341
2.43474661646
2.42713658202
2.41946568482
2.41173425308
2.40394261861
2.39609111673
2.38818008631
2.38020986977
2.37218081306
2.36409326567
2.35594758064
2.34774411456
2.33948322754
2.33116528324
2.32279064888
2.31435969519
2.30587279647
2.29733033053
2.28873267876
2.28008022607
2.2713733609
2.26261247526
2.25379796468
2.24493022824
2.23600966856
2.2270366918
2.21801170767
2.20893512941
2.19980737382
2.1906288612
2.18140001545
2.17212126397
2.16279303771
2.15341577117
2.14398990238
2.13451587293
2.12499412793
2.11542511604
2.10580928948
2.09614710397
2.08643901882
2.07668549684
2.06688700441
2.05704401144
2.04715699139
2.03722642124
2.02725278153
2.01723655634
2.0071782333
1.99707830355
1.98693726181
1.97675560632
1.96653383887
1.95627246477
1.94597199291
1.93563293569
1.92525580907
1.91484113254
1.90438942913
1.89390122543
1.88337705155
1.87281744115
1.86222293144
1.85159406315
1.84093138058
1.83023543156
1.81950676744
1.80874594315
1.79795351713
1.78713005138
1.77627611143
1.76539226636
1.75447908879
1.74353715488
1.73256704433
1.72156934038
1.71054462983
1.69949350299
1.68841655373
1.67731437947
1.66618758116
1.65503676329
1.64386253389
1.63266550454
1.62144629037
1.61020551002
1.59894378571
1.58766174316
1.57636001168
1.56503922409
1.55370001674
1.54234302956
1.530968906
1.51957829304
1.50817184122
1.49675020462
1.48531404086
1.47386401109
1.46240078002
1.45092501588
1.43943739047
1.42793857911
1.41642926066
1.40491011754
1.3933818357
1.38184510463
1.37030061736
1.35874907046
1.34719116407
1.33562760183
1.32405909094
1.31248634215
1.30091006975
1.28933099155
1.27774982892
1.26616730678
1.25458415357
1.24300110129
1.23141888547
1.21983824518
1.20825992304
1.19668466521
1.18511322139
1.17354634482
1.16198479229
1.15042932412
1.13888070417
1.12733969986
1.11580708214
1.10428362549
1.09277010795
1.08126731109
1.06977602004
1.05829702344
1.04683111351
1.03537908597
1.02394174012
1.01251987877
1.0011143083
0.989725838612
0.978355283153
0.967003458917
0.955671186436
0.944359289784
0.933068596577
0.921799937973
0.910554148672
0.899332066914
0.888134534482
0.876962396699
0.865816502432
0.854697704088
0.843606857616
0.832544822507
0.821512461793
0.810510642048
0.799540233387
0.788602109468
0.77769714749
0.766826228192
0.755990235858
0.74519005831
0.734426586914
0.723700716577
0.713013345748
0.702365376417
0.691757714116
0.681191267917
0.670666950437
0.660185677832
0.6497483698
0.639355949582
0.629009343959
0.618709483254
0.608457301332
0.5982537356
0.588099727006
0.577996220039
0.567944162731
0.557944506656
0.547998206927
0.538106222201
0.528269514676
0.518489050092
0.508765797729
0.499100730411
0.489494824502
0.479949059908
0.470464420076
0.461041891997
0.451682466201
0.44238713676
0.433156901289
0.423992760944
0.414895720422
0.405866787962
0.396906975345
0.388017297894
0.379198774472
0.370452427485
0.361779282881
0.353180370147
0.344656722315
0.336209375957
0.327839371187
0.31954775166
0.311335564573
0.303203860664
0.295153694215
0.287186123046
0.279302208522
0.271503015548
0.26378961257
0.256163071577
0.248624468099
0.241174881208
0.233815393517
0.226547091181
0.219371063897
0.212288404902
0.205300210977
0.198407582443
0.191611623164
0.184913440544
0.178314145529
0.171814852607
0.165416679808
0.159120748704
0.152928184407
0.146840115572
0.140857674394
0.134981996612
0.129214221505
0.123555491894
0.118006954142
0.112569758153
0.107245057373
0.102034008789
0.0969377729311
0.0919575138696
0.0870943992171
0.0823496001276
0.0777242912968
0.0732196509621
0.0688368609024
0.0645771064383
0.0604415764321
0.0564314632875
0.0525479629501
0.0487922749071
0.045165602187
0.0416691513603
0.0383041325391
0.0350717593768
0.0319732490689
0.0290098223521
0.026182703505
0.0234931203477
0.0209423042421
0.0185314900914
0.0162619163409
0.0141348249771
0.0121514615283
0.0103130750644
0.00862091819706
0.00707624707941
0.00568032140626
0.00443440441406
0.00333976288089
0.00239766712645
0.00160939101206
0.000976211940705
0.000499410856964
0.000180272247063
2.00841388526e-05
)
;

boundaryField
{
    left
    {
        type            cyclic;
    }
    right
    {
        type            cyclic;
    }
    frontAndBack
    {
        type            empty;
    }
}


// ************************************************************************* //
