/*--------------------------------*- C++ -*----------------------------------*\
| =========                 |                                                 |
| \\      /  F ield         | OpenFOAM: The Open Source CFD Toolbox           |
|  \\    /   O peration     | Version:  dev                                   |
|   \\  /    A nd           | Web:      www.OpenFOAM.org                      |
|    \\/     M anipulation  |                                                 |
\*---------------------------------------------------------------------------*/
FoamFile
{
    version     2.0;
    format      ascii;
    class       volScalarField;
    location    "0";
    object      moment.4.populationBalance;
}
// * * * * * * * * * * * * * * * * * * * * * * * * * * * * * * * * * * * * * //

dimensions      [0 1 0 0 0 0 0];

internalField   nonuniform List<scalar> 
1000
(
6.3936016e-13
5.74273296e-12
1.59201e-11
3.114086416e-11
5.137448976e-11
7.659050256e-11
1.0675848976e-10
1.418481e-10
1.8182904336e-10
2.2667109136e-10
2.7634407696e-10
3.3081789456e-10
3.900625e-10
4.5404791056e-10
5.2274420496e-10
5.9612152336e-10
6.7415006736e-10
7.568001e-10
8.4404194576e-10
9.3584599056e-10
1.03218268176e-09
1.13302252816e-09
1.2383361e-09
1.34809402896e-09
1.46226700816e-09
1.58082579216e-09
1.70374119696e-09
1.8309841e-09
1.96252544016e-09
2.09833621776e-09
2.23838749456e-09
2.38265039376e-09
2.5310961e-09
2.68369585936e-09
2.84042097936e-09
3.00124282896e-09
3.16613283856e-09
3.3350625e-09
3.50800336656e-09
3.68492705296e-09
3.86580523536e-09
4.05060965136e-09
4.2393121e-09
4.43188444176e-09
4.62829859856e-09
4.82852655376e-09
5.03254035216e-09
5.2403121e-09
5.45181396496e-09
5.66701817616e-09
5.88589702416e-09
6.10842286096e-09
6.3345681e-09
6.56430521616e-09
6.79760674576e-09
7.03444528656e-09
7.27479349776e-09
7.5186241e-09
7.76590987536e-09
8.01662366736e-09
8.27073838096e-09
8.52822698256e-09
8.7890625e-09
9.05321802256e-09
9.32066670096e-09
9.59138174736e-09
9.86533643536e-09
1.01425041e-08
1.04228581378e-08
1.07063720066e-08
1.09930192258e-08
1.12827733762e-08
1.15756081e-08
1.1871497101e-08
1.21704141442e-08
1.24723330562e-08
1.2777227725e-08
1.30850721e-08
1.33958401922e-08
1.37095060738e-08
1.40260438786e-08
1.43454278018e-08
1.46676321e-08
1.49926310914e-08
1.53203991554e-08
1.5650910733e-08
1.59841403266e-08
1.63200625e-08
1.66586518786e-08
1.6999883149e-08
1.73437310594e-08
1.76901704194e-08
1.80391761e-08
1.83907230338e-08
1.87447862146e-08
1.91013406978e-08
1.94603616002e-08
1.98218241e-08
2.0185703437e-08
2.05519749122e-08
2.09206138882e-08
2.1291595789e-08
2.16648961e-08
2.20404903682e-08
2.24183542018e-08
2.27984632706e-08
2.31807933058e-08
2.35653201e-08
2.39520195074e-08
2.43408674434e-08
2.4731839885e-08
2.51249128706e-08
2.55200625e-08
2.59172649346e-08
2.6316496397e-08
2.67177331714e-08
2.71209516034e-08
2.75261281e-08
2.79332391298e-08
2.83422612226e-08
2.87531709698e-08
2.91659450242e-08
2.95805601e-08
2.9996992973e-08
3.04152204802e-08
3.08352195202e-08
3.1256967053e-08
3.16804401e-08
3.21056157442e-08
3.25324711298e-08
3.29609834626e-08
3.33911300098e-08
3.38228881e-08
3.42562351234e-08
3.46911485314e-08
3.5127605837e-08
3.55655846146e-08
3.60050625e-08
3.64460171906e-08
3.6888426445e-08
3.73322680834e-08
3.77775199874e-08
3.82241601e-08
3.86721664258e-08
3.91215170306e-08
3.95721900418e-08
4.00241636482e-08
4.04774161e-08
4.0931925709e-08
4.13876708482e-08
4.18446299522e-08
4.2302781517e-08
4.27621041e-08
4.32225763202e-08
4.36841768578e-08
4.41468844546e-08
4.46106779138e-08
4.50755361e-08
4.55414379394e-08
4.60083624194e-08
4.6476288589e-08
4.69451955586e-08
4.74150625e-08
4.78858686466e-08
4.8357593293e-08
4.88302157954e-08
4.93037155714e-08
4.97780721e-08
5.02532649218e-08
5.07292736386e-08
5.12060779138e-08
5.16836574722e-08
5.21619921e-08
5.2641061645e-08
5.31208460162e-08
5.36013251842e-08
5.4082479181e-08
5.45642881e-08
5.50467320962e-08
5.55297913858e-08
5.60134462466e-08
5.64976770178e-08
5.69824641e-08
5.74677879554e-08
5.79536291074e-08
5.8439968141e-08
5.89267857026e-08
5.94140625e-08
5.99017793026e-08
6.0389916941e-08
6.08784563074e-08
6.13673783554e-08
6.18566641e-08
6.23462946178e-08
6.28362510466e-08
6.33265145858e-08
6.38170664962e-08
6.43078881e-08
6.4798960781e-08
6.52902659842e-08
6.57817852162e-08
6.6273500045e-08
6.67653921e-08
6.72574430722e-08
6.77496347138e-08
6.82419488386e-08
6.87343673218e-08
6.92268721e-08
6.97194451714e-08
7.02120685954e-08
7.0704724493e-08
7.11973950466e-08
7.16900625e-08
7.21827091586e-08
7.2675317389e-08
7.31678696194e-08
7.36603483394e-08
7.41527361e-08
7.46450155138e-08
7.51371692546e-08
7.56291800578e-08
7.61210307202e-08
7.66127041e-08
7.7104183117e-08
7.75954507522e-08
7.80864900482e-08
7.8577284109e-08
7.90678161e-08
7.95580692482e-08
8.00480268418e-08
8.05376722306e-08
8.10269888258e-08
8.15159601e-08
8.20045695874e-08
8.24928008834e-08
8.2980637645e-08
8.34680635906e-08
8.39550625e-08
8.44416182146e-08
8.4927714637e-08
8.54133357314e-08
8.58984655234e-08
8.63830881e-08
8.68671876098e-08
8.73507482626e-08
8.78337543298e-08
8.83161901442e-08
8.87980401e-08
8.9279288653e-08
8.97599203202e-08
9.02580998601e-08
9.08824566683e-08
9.16500421938e-08
9.25596823288e-08
9.36102061339e-08
9.48004458379e-08
9.61292368381e-08
9.75954177e-08
9.91978301575e-08
1.00935319113e-07
1.02806732636e-07
1.04810921967e-07
1.06946741512e-07
1.09213048848e-07
1.11608704717e-07
1.14132573032e-07
1.16783520873e-07
1.1956041849e-07
1.224621393e-07
1.25487559888e-07
1.28635560007e-07
1.31905022581e-07
1.352948337e-07
1.38803882622e-07
1.42431061775e-07
1.46175266755e-07
1.50035396324e-07
1.54010352416e-07
1.58099040131e-07
1.62300367737e-07
1.66613246672e-07
1.71036591542e-07
1.7556932012e-07
1.80210353348e-07
1.84958615337e-07
1.89813033366e-07
1.94772537882e-07
1.998360625e-07
2.05002544004e-07
2.10270922347e-07
2.15640140649e-07
2.21109145199e-07
2.26676885453e-07
2.32342314038e-07
2.38104386747e-07
2.43962062542e-07
2.49914303555e-07
2.55960075083e-07
2.62098345594e-07
2.68328086723e-07
2.74648273274e-07
2.8105788322e-07
2.875558977e-07
2.94141301024e-07
3.00813080669e-07
3.0757022728e-07
3.1441173467e-07
3.21336599823e-07
3.28343822889e-07
3.35432407186e-07
3.42601359202e-07
3.49849688592e-07
3.57176408179e-07
3.64580533956e-07
3.72061085084e-07
3.79617083891e-07
3.87247555875e-07
3.949515297e-07
4.02728037201e-07
4.10576113379e-07
4.18494796406e-07
4.2648312762e-07
4.34540151527e-07
4.42664915804e-07
4.50856471295e-07
4.59113872011e-07
4.67436175132e-07
4.75822441009e-07
4.84271733157e-07
4.92783118262e-07
5.01355666178e-07
5.09988449927e-07
5.186805457e-07
5.27431223281e-07
5.362483417e-07
5.45136045188e-07
5.54094293603e-07
5.63123673373e-07
5.72225445579e-07
5.8140161849e-07
5.90655046034e-07
5.99989554392e-07
6.09410099532e-07
6.18922959192e-07
6.28535963519e-07
6.3825876921e-07
6.48103182788e-07
6.58083539306e-07
6.68217143587e-07
6.78524781855e-07
6.89031312425e-07
6.99766344946e-07
7.10765018532e-07
7.2206888999e-07
7.33726944213e-07
7.45796739717e-07
7.58345703191e-07
7.71452587818e-07
7.85209111068e-07
7.99721788506e-07
8.1511398112e-07
8.31528174481e-07
8.49128508984e-07
8.68103581214e-07
8.88669537323e-07
9.11073480109e-07
9.35597212232e-07
9.62561338764e-07
9.9232975293e-07
1.02531452958e-06
1.06198125156e-06
1.10285479461e-06
1.14852559718e-06
1.19965644164e-06
1.25698977427e-06
1.32135559125e-06
1.39367991863e-06
1.47499391421e-06
1.56644361959e-06
1.66930039069e-06
1.78497203524e-06
1.91501468553e-06
2.06114543471e-06
2.22525576506e-06
2.40942579581e-06
2.61593937857e-06
2.84730006739e-06
3.10624799049e-06
3.39577764997e-06
3.71915667522e-06
4.07994555527e-06
4.48201837427e-06
4.92958457362e-06
5.42721176348e-06
5.97984960508e-06
6.59285478444e-06
7.27201709671e-06
8.0235866593e-06
8.85430227048e-06
9.77142092866e-06
1.07827485262e-05
1.18966717297e-05
1.31221910578e-05
1.44689551638e-05
1.5947296332e-05
1.75682671903e-05
1.93436786433e-05
2.12861390264e-05
2.34090944786e-05
2.57268705313e-05
2.82547149054e-05
3.10088415093e-05
3.40064756265e-05
3.72659002781e-05
4.08065037445e-05
4.46488282271e-05
4.88146196278e-05
5.33268784213e-05
5.82099115934e-05
6.3489385613e-05
6.91923804056e-05
7.53474442908e-05
8.19846498442e-05
8.91356506397e-05
9.68337388287e-05
0.000105113903503
0.000114012889792
0.000123569258637
0.000133823447186
0.000144817829738
0.000156596779189
0.000169206728888
0.000182696234852
0.00019711603825
0.000212519128088
0.000228960804006
0.000246498739106
0.000265193042726
0.00028510632306
0.000306303749543
0.000328853114896
0.000352824896729
0.000378292318616
0.000405331410512
0.000434021068432
0.000464443113258
0.00049668234858
0.000530826617446
0.000566966857905
0.000605197157236
0.000645614804718
0.000688320342848
0.00073341761686
0.000781013822431
0.000831219551439
0.000884148835657
0.000939919188237
0.000998651642867
0.00106047079047
0.00112550481328
0.00119388551626
0.00126574835557
0.0013412324641
0.00142048067389
0.00150363953522
0.00159085933244
0.00168229409612
0.0017781016117
0.00187844342428
0.00198348483951
0.00209339492048
0.00220834648041
0.00232851607114
0.00245408396712
0.00258523414495
0.0027221542583
0.002865035608
0.00301407310738
0.00316946524258
0.0033314140278
0.00350012495544
0.00367580694088
0.00385867226203
0.00404893649331
0.00424681843422
0.00445254003221
0.00466632629996
0.00488840522685
0.00511900768463
0.00535836732725
0.00560672048475
0.00586430605113
0.00613136536635
0.00640814209209
0.0066948820816
0.00699183324339
0.00729924539874
0.00761737013322
0.00794646064197
0.00828677156894
0.00863855883991
0.00900207948958
0.00937759148245
0.00976535352771
0.0101656248882
0.0105786651834
0.0110047341865
0.0114440916155
0.0118969969191
0.0123637090563
0.0128444862706
0.0133395858593
0.0138492639362
0.0143737751905
0.0149133726394
0.0154683073762
0.0160388283136
0.0166251819219
0.0172276119633
0.017846359221
0.0184816612244
0.0191337519708
0.019802861642
0.0204892163186
0.0211930376898
0.0219145427605
0.0226539435553
0.0234114468194
0.0241872537173
0.0249815595288
0.0257945533435
0.0266264177529
0.027477328541
0.0283474543741
0.029236956489
0.0301459883812
0.0310746954916
0.0320232148941
0.0329916749831
0.0339801951608
0.0349888855266
0.0360178465661
0.0370671688429
0.0381369326913
0.0392272079114
0.0403380534666
0.0414695171842
0.0426216354585
0.0437944329579
0.0449879223355
0.0462021039445
0.0474369655572
0.0486924820898
0.0499686153318
0.0512653136817
0.0525825118879
0.0539201307968
0.055278077107
0.0566562431308
0.0580545065635
0.0594727302598
0.0609107620191
0.0623684343789
0.0638455644175
0.0653419535655
0.0668573874271
0.0683916356118
0.0699444515757
0.0715155724739
0.073104719024
0.0747115953805
0.0763358890214
0.0779772706464
0.0796353940873
0.0813098962317
0.0830003969588
0.0847064990889
0.0864277883465
0.0881638333368
0.0899141855361
0.0916783792977
0.0934559318708
0.0952463434354
0.0970490971514
0.0988636592239
0.100689478983
0.10252598898
0.1043726051
0.106228726688
0.108093736693
0.109967001832
0.111847872763
0.113735684279
0.115629755521
0.117529390202
0.119433876853
0.121342489084
0.123254485858
0.125169111794
0.12708559747
0.12900315976
0.130921002176
0.13283831523
0.134754276817
0.136668052613
0.138578796485
0.140485650925
0.142387747494
0.144284207289
0.146174141421
0.148056651511
0.149930830204
0.151795761691
0.153650522261
0.15549418085
0.157325799621
0.159144434551
0.160949136028
0.162738949474
0.164512915973
0.166270072911
0.168009454639
0.169730093133
0.171431018684
0.173111260584
0.174769847833
0.176405809853
0.178018177212
0.17960598236
0.181168260371
0.182704049696
0.184212392924
0.185692337551
0.187142936752
0.188563250163
0.189952344669
0.191309295197
0.192633185506
0.193923108995
0.195178169498
0.196397482095
0.197580173916
0.198725384945
0.199832268834
0.200899993704
0.201927742952
0.202914716054
0.203860129365
0.204763216912
0.20562323119
0.206439443943
0.207211146945
0.207937652772
0.208618295569
0.209252431798
0.20983944099
0.210378726477
0.210869716115
0.211311862998
0.211704646152
0.212047571221
0.212340171135
0.212582006764
0.212772667553
0.212911772145
0.212998968974
0.213033936855
0.213032000452
0.213021771629
0.213003874312
0.212978309466
0.212945078473
0.212904183127
0.212855625637
0.212799408626
0.212735535131
0.212664008604
0.212584832909
0.212498012327
0.212403551552
0.21230145569
0.212191730265
0.212074381211
0.21194941488
0.211816838035
0.211676657856
0.211528881935
0.211373518278
0.211210575307
0.211040061857
0.210861987176
0.210676360929
0.210483193193
0.210282494459
0.210074275633
0.209858548035
0.2096353234
0.209404613874
0.209166432021
0.208920790817
0.208667703653
0.208407184333
0.208139247076
0.207863906515
0.207581177698
0.207291076085
0.206993617552
0.206688818389
0.206376695298
0.206057265399
0.205730546223
0.205396555716
0.205055312238
0.204706834564
0.204351141882
0.203988253795
0.20361819032
0.203240971887
0.202856619341
0.202465153943
0.202066597365
0.201660971694
0.201248299432
0.200828603496
0.200401907214
0.199968234331
0.199527609005
0.199080055808
0.198625599728
0.198164266163
0.19769608093
0.197221070256
0.196739260785
0.196250679574
0.195755354095
0.195253312232
0.194744582285
0.194229192968
0.193707173409
0.193178553149
0.192643362145
0.192101630767
0.191553389799
0.19099867044
0.190437504302
0.189869923412
0.189295960211
0.188715647555
0.188129018712
0.187536107365
0.186936947612
0.186331573965
0.18572002135
0.185102325105
0.184478520986
0.18384864516
0.18321273421
0.182570825132
0.181922955337
0.181269162649
0.180609485307
0.179943961965
0.179272631689
0.17859553396
0.177912708674
0.17722419614
0.176530037083
0.175830272639
0.175124944361
0.174414094215
0.173697764581
0.172975998254
0.172248838441
0.171516328766
0.170778513265
0.170035436389
0.169287143004
0.168533678388
0.167775088234
0.167011418651
0.166242716159
0.165469027694
0.164690400607
0.163906882662
0.163118522035
0.16232536732
0.161527467524
0.160724872065
0.159917630781
0.159105793918
0.15828941214
0.157468536524
0.156643218562
0.155813510159
0.154979463634
0.15414113172
0.153298567567
0.152451824735
0.1516009572
0.150746019354
0.149887065999
0.149024152356
0.148157334055
0.147286667145
0.146412208085
0.145534013751
0.144652141432
0.143766648832
0.142877594067
0.14198503567
0.141089032586
0.140189644174
0.13928693021
0.13838095088
0.137471766788
0.136559438949
0.135644028794
0.134725598168
0.13380420933
0.132879924953
0.131952808123
0.131022922341
0.130090331525
0.129155100001
0.128217292515
0.127276974225
0.126334210701
0.12538906793
0.124441612312
0.123491910662
0.122540030208
0.121586038593
0.120630003873
0.119671994519
0.118712079416
0.117750327864
0.116786809575
0.115821594677
0.114854753712
0.113886357635
0.112916477816
0.111945186039
0.110972554502
0.109998655818
0.109023563013
0.108047349526
0.107070089214
0.106091856345
0.105112725601
0.10413277208
0.103152071292
0.102170699165
0.101188732035
0.100206246659
0.0992233202019
0.0982400302472
0.0972564547906
0.0962726722422
0.0952887614263
0.0943048015813
0.0933208723599
0.0923370538287
0.0913534264686
0.0903700711746
0.0893870692558
0.0884045024355
0.087422452851
0.086441003054
0.0854602360101
0.084480235099
0.0835010841149
0.0825228672657
0.0815456691737
0.0805695748752
0.0795946698207
0.078621039875
0.0776487713167
0.0766779508388
0.0757086655483
0.0747410029665
0.0737750510286
0.0728108980841
0.0718486328966
0.0708883446438
0.0699301229177
0.0689740577243
0.0680202394836
0.06706875903
0.0661197076119
0.0651731768919
0.0642292589467
0.063288046267
0.062349631758
0.0614141087387
0.0604815709423
0.0595521125163
0.0586258280221
0.0577028124355
0.0567831611462
0.0558669699582
0.0549543350895
0.0540453531724
0.0531401212532
0.0522387367924
0.0513412976647
0.0504479021587
0.0495586489774
0.0486736372379
0.0477929664712
0.0469167366228
0.046045048052
0.0451780015325
0.044315698252
0.0434582398124
0.0426057282295
0.0417582659337
0.0409159557691
0.0400789009942
0.0392472052815
0.0384209727178
0.0376003078037
0.0367853154544
0.0359761009989
0.0351727701804
0.0343754291563
0.0335841844981
0.0327991431915
0.0320204126363
0.0312481006463
0.0304823154497
0.0297231656887
0.0289707604195
0.0282252091127
0.0274866216529
0.0267551083388
0.0260307798833
0.0253137474135
0.0246041224704
0.0239020170094
0.0232075434
0.0225208144257
0.0218419432841
0.0211710435873
0.0205082293611
0.0198536150457
0.0192073154953
0.0185694459784
0.0179401221775
0.0173194601892
0.0167075765243
0.0161045881079
0.0155106122789
0.0149257667907
0.0143501698106
0.0137839399201
0.0132271961147
0.0126800578044
0.012142644813
0.0116150773785
0.0110974761531
0.0105899622032
0.0100926570093
0.00960568246583
0.00912916088164
0.00866321497958
0.00820796789667
0.00776354318404
0.00733006480699
0.00690765714493
0.00649644499144
0.0060965535542
0.00570810845505
0.00533123572997
0.00496606182907
0.00461271361659
0.00427131837092
0.00394200378458
0.00362489796424
0.00332012943068
0.00302782711885
0.00274812037783
0.00248113897081
0.00222701307514
0.00198587328232
0.00175785059797
0.00154307644183
0.00134168264782
0.00115380146397
0.000979565552448
0.000819107989564
0.000672562265767
0.000540062285642
0.00042174236791
0.000317737245431
0.000228182065203
0.000153212388361
9.29641901761e-05
4.75738600581e-05
1.71782015541e-05
1.91443234868e-06
)
;

boundaryField
{
    left
    {
        type            cyclic;
    }
    right
    {
        type            cyclic;
    }
    frontAndBack
    {
        type            empty;
    }
}


// ************************************************************************* //
