/*--------------------------------*- C++ -*----------------------------------*\
| =========                 |                                                 |
| \\      /  F ield         | OpenFOAM: The Open Source CFD Toolbox           |
|  \\    /   O peration     | Version:  dev                                   |
|   \\  /    A nd           | Web:      www.OpenFOAM.org                      |
|    \\/     M anipulation  |                                                 |
\*---------------------------------------------------------------------------*/
FoamFile
{
    version     2.0;
    format      ascii;
    class       volScalarField;
    location    "0";
    object      moment.4.populationBalance;
}
// * * * * * * * * * * * * * * * * * * * * * * * * * * * * * * * * * * * * * //

dimensions      [0 1 0 0 0 0 0];

internalField   nonuniform List<scalar> 
500
(
2.55488256e-12
2.290196736e-11
6.33616e-11
1.2368998656e-10
2.0364431616e-10
3.0298276096e-10
4.2146447616e-10
5.588496e-10
7.1489925376e-10
8.8937554176e-10
1.08204155136e-09
1.29266135296e-09
1.521e-09
1.76682352896e-09
2.02989895936e-09
2.30999429376e-09
2.60687851776e-09
2.9203216e-09
3.25009449216e-09
3.59596912896e-09
3.95771842816e-09
4.33511629056e-09
4.7279376e-09
5.13595822336e-09
5.55895501056e-09
5.99670579456e-09
6.44898939136e-09
6.9155856e-09
7.39627520256e-09
7.89083996416e-09
8.39906263296e-09
8.92072694016e-09
9.4556176e-09
1.00035203098e-08
1.05642217498e-08
1.11375095834e-08
1.1723172457e-08
1.2321e-08
1.2930782825e-08
1.35523125274e-08
1.41853816858e-08
1.48297838618e-08
1.54853136e-08
1.61517664282e-08
1.6828938857e-08
1.75166283802e-08
1.82146334746e-08
1.89227536e-08
1.96407891994e-08
2.03685416986e-08
2.11058135066e-08
2.18524080154e-08
2.26081296e-08
2.33727836186e-08
2.41461764122e-08
2.4928115305e-08
2.57184086042e-08
2.65168656e-08
2.73232965658e-08
2.81375127578e-08
2.89593264154e-08
2.9788550761e-08
3.0625e-08
3.1468489321e-08
3.23188348954e-08
3.31758538778e-08
3.40393644058e-08
3.49091856e-08
3.57851375642e-08
3.6667041385e-08
3.75547191322e-08
3.84479938586e-08
3.93466896e-08
4.02506313754e-08
4.11596451866e-08
4.20735580186e-08
4.29921978394e-08
4.39153936e-08
4.48429752346e-08
4.57747736602e-08
4.6710620777e-08
4.76503494682e-08
4.85937936e-08
4.95407880218e-08
5.04911685658e-08
5.14447720474e-08
5.2401436265e-08
5.3361e-08
5.4323303017e-08
5.52881860634e-08
5.62554908698e-08
5.72250601498e-08
5.81967376e-08
5.91703679002e-08
6.0145796713e-08
6.11228706842e-08
6.21014374426e-08
6.30813456e-08
6.40624447514e-08
6.50445854746e-08
6.60276193306e-08
6.70113988634e-08
6.79957776e-08
6.89806100506e-08
6.99657517082e-08
7.0951059049e-08
7.19363895322e-08
7.29216016e-08
7.39065546778e-08
7.48911091738e-08
7.58751264794e-08
7.6858468969e-08
7.7841e-08
7.8822583913e-08
7.98030860314e-08
8.07823726618e-08
8.17603110938e-08
8.27367696e-08
8.37116174362e-08
8.4684724841e-08
8.56559630362e-08
8.66252042266e-08
8.75923216e-08
8.85571893274e-08
8.95196825626e-08
9.05523011691e-08
9.20871786931e-08
9.41879343605e-08
9.68452260022e-08
1.00049762143e-07
1.03792302e-07
1.08063655484e-07
1.128546832e-07
1.18156296445e-07
1.23959457211e-07
1.30255178181e-07
1.37034522733e-07
1.44288604938e-07
1.5200858956e-07
1.60185692057e-07
1.68811178579e-07
1.7787636597e-07
1.87372621768e-07
1.97291364203e-07
2.076240622e-07
2.18362235376e-07
2.29497454041e-07
2.410213392e-07
2.52925562549e-07
2.6520184648e-07
2.77841964076e-07
2.90837739113e-07
3.04181046064e-07
3.17863810092e-07
3.31878007053e-07
3.46215663498e-07
3.60868856671e-07
3.75829714509e-07
3.91090415642e-07
4.06643189394e-07
4.22480315782e-07
4.38594125516e-07
4.54977e-07
4.71621371331e-07
4.88519722298e-07
5.05664586386e-07
5.23048547771e-07
5.40683387103e-07
5.58600029791e-07
5.76804074736e-07
5.95311883915e-07
6.14154540034e-07
6.33382957823e-07
6.53075361864e-07
6.73347757771e-07
6.94368209187e-07
7.16375929799e-07
7.39706407675e-07
7.6482399736e-07
7.92363640797e-07
8.23183607922e-07
8.58431377783e-07
8.99625007258e-07
9.4875255273e-07
1.0083923166e-06
1.08185688158e-06
1.17336406798e-06
1.28823809984e-06
1.43314439174e-06
1.6163614675e-06
1.84809359229e-06
2.14082773866e-06
2.50973851358e-06
2.97314464521e-06
3.55302056324e-06
4.2755665044e-06
5.17184043251e-06
6.27845487969e-06
7.6383415905e-06
9.3015865829e-06
1.13263379278e-05
1.37797881926e-05
1.67392330933e-05
2.02932074523e-05
2.4542699071e-05
2.96024405901e-05
3.56022788372e-05
4.26886205425e-05
5.1025952651e-05
6.0798434769e-05
7.22115605612e-05
8.54938841616e-05
0.000100898806889
0.000118706418758
0.000139225388471
0.000162794894738
0.000189786590978
0.000220606594582
0.000255697491138
0.000295540343196
0.000340656692349
0.000391610542679
0.000449010312835
0.000513510743373
0.000585814745287
0.000666675175101
0.000756896521329
0.00085733648664
0.000968907449648
0.00109257778992
0.00122937305952
0.00138037698429
0.00154673227785
0.0017296412515
0.00193036620313
0.00215022956854
0.00239061381893
0.00265296108848
0.00293877251684
0.00324960729156
0.00358708137663
0.00395286591365
0.00434868528362
0.00477631481794
0.00523757814865
0.00573434418898
0.00626852373687
0.00684206569525
0.00745695290476
0.00811519758586
0.00881883638928
0.0095699250553
0.0103705326844
0.0112227356233
0.0121286109738
0.0130902297305
0.0141096495605
0.0151889072356
0.0163300107321
0.017534931015
0.0188055935256
0.0201438693927
0.0215515663909
0.0230304196716
0.0245820822921
0.0262081155742
0.0279099793218
0.0296890219304
0.0315464704246
0.033483420458
0.0355008263157
0.0375994909577
0.0397800561434
0.0420429926818
0.0443885908482
0.0468169510136
0.0493279745303
0.0519213549212
0.0545965694173
0.0573528708923
0.0601892802379
0.0631045792301
0.0660973039297
0.0691657386654
0.0723079106432
0.0755215852273
0.0788042619364
0.0821531711958
0.0855652718876
0.0890372497371
0.092565516572
0.0961462104901
0.0997751969662
0.10344807093
0.10716015984
0.11090652778
0.114681980594
0.118481072085
0.122298111281
0.126127170792
0.129962096245
0.13379651682
0.137623856872
0.141437348635
0.145230045995
0.148994839328
0.152724471367
0.156411554076
0.160048586523
0.163627973676
0.16714204613
0.17058308068
0.173943321719
0.17721500339
0.180390372442
0.183461711728
0.186421364263
0.189261757794
0.191975429777
0.1945550527
0.196993459664
0.199283670123
0.2014189157
0.20339266598
0.205198654186
0.206830902623
0.208283747803
0.209551865132
0.210630293058
0.211514456571
0.21220018993
0.21268375854
0.212961879822
0.213034238989
0.213013781482
0.212962652135
0.212880861995
0.212768428733
0.212625376645
0.212451736654
0.212247546312
0.212012849792
0.211747697898
0.211452148057
0.211126264323
0.210770117378
0.210383784529
0.209967349707
0.209520903473
0.209044543011
0.208538372133
0.208002501278
0.207437047508
0.206842134515
0.206217892614
0.205564458748
0.204881976486
0.204170596023
0.20343047418
0.202661774404
0.201864666769
0.201039327975
0.200185941347
0.199304696839
0.198395791027
0.197459427117
0.19649581494
0.195505170952
0.194487718237
0.193443686504
0.192373312088
0.191276837952
0.190154513683
0.189006595496
0.18783334623
0.186635035352
0.185411938956
0.18416433976
0.182892527109
0.181596796975
0.180277451954
0.178934801272
0.177569160777
0.176180852947
0.174770206883
0.173337558313
0.171883249594
0.170407629705
0.168911054253
0.167393885473
0.165856492224
0.16429924999
0.162722540886
0.161126753647
0.15951228364
0.157879532853
0.156228909905
0.154560830038
0.152875715122
0.15117399365
0.149456100746
0.147722478157
0.145973574256
0.144209844045
0.142431749148
0.14063975782
0.138834344938
0.137015992007
0.135185187159
0.133342425151
0.131488207366
0.129623041814
0.127747443132
0.125861932581
0.123967038049
0.122063294052
0.12015124173
0.118231428849
0.116304409803
0.114370745611
0.11243100392
0.110485758999
0.108535591748
0.106581089691
0.104622846978
0.102661464385
0.100697549315
0.0987317157967
0.0967645844861
0.0947967826638
0.0928289442377
0.0908617097412
0.0888957263344
0.0869316478034
0.0849701345605
0.0830118536442
0.0810574787193
0.0791076900766
0.0771631746332
0.0752246259326
0.0732927441441
0.0713682360636
0.0694518151129
0.0675442013401
0.0656461214196
0.0637583086518
0.0618815029635
0.0600164509076
0.0581639056632
0.0563246270356
0.0544993814563
0.0526889419831
0.0508940882997
0.0491156067164
0.0473542901695
0.0456109382213
0.0438863570608
0.0421813595027
0.0404967649881
0.0388333995844
0.0371920959851
0.0355736935098
0.0339790381045
0.0324089823413
0.0308643854184
0.0293461131604
0.027855038018
0.026392039068
0.0249580020136
0.023553819184
0.0221803895348
0.0208386186476
0.0195294187303
0.0182537086171
0.0170124137682
0.0158064662701
0.0146368048355
0.0135043748033
0.0124101281386
0.0113550234327
0.0103400259031
0.00936610739335
0.00843424637349
0.00754542793956
0.00670064381384
0.00590089234482
0.00514717850719
0.00444051390183
0.00378191675582
0.00317241192244
0.00261303088119
0.00210481173773
0.00164879922396
0.00124604469795
0.00089760614398
0.000604548172532
0.000367942020283
0.000188865550111
6.84032510934e-05
7.64623850658e-06
)
;

boundaryField
{
    left
    {
        type            cyclic;
    }
    right
    {
        type            cyclic;
    }
    frontAndBack
    {
        type            empty;
    }
}


// ************************************************************************* //
