/*--------------------------------*- C++ -*----------------------------------*\
| =========                 |                                                 |
| \\      /  F ield         | OpenFOAM: The Open Source CFD Toolbox           |
|  \\    /   O peration     | Version:  dev                                   |
|   \\  /    A nd           | Web:      www.OpenFOAM.org                      |
|    \\/     M anipulation  |                                                 |
\*---------------------------------------------------------------------------*/
FoamFile
{
    version     2.0;
    format      ascii;
    class       volScalarField;
    location    "0";
    object      moment.3.populationBalance;
}
// * * * * * * * * * * * * * * * * * * * * * * * * * * * * * * * * * * * * * //

dimensions      [0 0 0 0 0 0 0];

internalField   nonuniform List<scalar> 
500
(
1.27744128e-10
1.145098368e-09
3.16808e-09
6.184499328e-09
1.0182215808e-08
1.5149138048e-08
2.1073223808e-08
2.794248e-08
3.5744962688e-08
4.4468777088e-08
5.4102077568e-08
6.4633067648e-08
7.605e-08
8.8341176448e-08
1.01494947968e-07
1.15499714688e-07
1.30343925888e-07
1.4601608e-07
1.62504724608e-07
1.79798456448e-07
1.97885921408e-07
2.16755814528e-07
2.3639688e-07
2.56797911168e-07
2.77947750528e-07
2.99835289728e-07
3.22449469568e-07
3.4577928e-07
3.69813760128e-07
3.94541998208e-07
4.19953131648e-07
4.46036347008e-07
4.7278088e-07
5.00176015488e-07
5.28211087488e-07
5.56875479168e-07
5.86158622848e-07
6.1605e-07
6.46539141248e-07
6.77615626368e-07
7.09269084288e-07
7.41489193088e-07
7.7426568e-07
8.07588321408e-07
8.41446942848e-07
8.75831419008e-07
9.10731673728e-07
9.4613768e-07
9.82039459968e-07
1.01842708493e-06
1.05529067533e-06
1.09262040077e-06
1.13040648e-06
1.16863918093e-06
1.20730882061e-06
1.24640576525e-06
1.28592043021e-06
1.32584328e-06
1.36616482829e-06
1.40687563789e-06
1.44796632077e-06
1.48942753805e-06
1.53125e-06
1.57342446605e-06
1.61594174477e-06
1.65879269389e-06
1.70196822029e-06
1.74545928e-06
1.78925687821e-06
1.83335206925e-06
1.87773595661e-06
1.92239969293e-06
1.96733448e-06
2.01253156877e-06
2.05798225933e-06
2.10367790093e-06
2.14960989197e-06
2.19576968e-06
2.24214876173e-06
2.28873868301e-06
2.33553103885e-06
2.38251747341e-06
2.42968968e-06
2.47703940109e-06
2.52455842829e-06
2.57223860237e-06
2.62007181325e-06
2.66805e-06
2.71616515085e-06
2.76440930317e-06
2.81277454349e-06
2.86125300749e-06
2.90983688e-06
2.95851839501e-06
3.00728983565e-06
3.05614353421e-06
3.10507187213e-06
3.15406728e-06
3.20312223757e-06
3.25222927373e-06
3.30138096653e-06
3.35056994317e-06
3.39978888e-06
3.44903050253e-06
3.49828758541e-06
3.54755295245e-06
3.59681947661e-06
3.64608008e-06
3.69532773389e-06
3.74455545869e-06
3.79375632397e-06
3.84292344845e-06
3.89205e-06
3.94112919565e-06
3.99015430157e-06
4.03911863309e-06
4.08801555469e-06
4.13683848e-06
4.18558087181e-06
4.23423624205e-06
4.28279815181e-06
4.33126021133e-06
4.37961608e-06
4.42785946637e-06
4.47598412813e-06
4.52579946529e-06
4.58810574451e-06
4.66449039901e-06
4.75471685172e-06
4.85854981747e-06
4.97575530301e-06
5.106100607e-06
5.24935432e-06
5.40528632448e-06
5.57366779482e-06
5.75427119731e-06
5.94687029016e-06
6.15124012346e-06
6.36715703923e-06
6.59439867141e-06
6.83274394581e-06
7.08197308019e-06
7.3418675842e-06
7.61221025939e-06
7.89278519923e-06
8.18337778911e-06
8.4837747063e-06
8.79376392e-06
9.11313469132e-06
9.44167757326e-06
9.77918441075e-06
1.01254483406e-05
1.04802637916e-05
1.08434264844e-05
1.12147334314e-05
1.15939829373e-05
1.19809745983e-05
1.23755093027e-05
1.27773892308e-05
1.31864178546e-05
1.36023999381e-05
1.40251415373e-05
1.445445e-05
1.48901339659e-05
1.53320033666e-05
1.57798694258e-05
1.62335446588e-05
1.66936449035e-05
1.71615497671e-05
1.76374713124e-05
1.81219232247e-05
1.86158104722e-05
1.91205188989e-05
1.9638039187e-05
2.0171128626e-05
2.07235148928e-05
2.1300146568e-05
2.19074954045e-05
2.25539154693e-05
2.32500642028e-05
2.40093902282e-05
2.48486924074e-05
2.57887542108e-05
2.68550569611e-05
2.80785749469e-05
2.94966547971e-05
3.11539808684e-05
3.31036277424e-05
3.54082002595e-05
3.8141060841e-05
4.13876431703e-05
4.52468506265e-05
4.98325371853e-05
5.52750678256e-05
6.17229548115e-05
6.93445655484e-05
7.83298970525e-05
8.8892411415e-05
0.000101270925996
0.000115731551444
0.000132569670009
0.000152111946013
0.000174718359743
0.000200784255458
0.000230742393672
0.000265064997342
0.00030426578112
0.000348901952378
0.000399576172318
0.000456938465111
0.000521688062725
0.000594575172799
0.000676402656788
0.000768027605384
0.000870362798197
0.000984378034616
0.00111110132285
0.0012516199142
0.00140708116986
0.0015786932477
0.00176772559688
0.00197550924834
0.00220343688995
0.00245296271519
0.00272560203517
0.00302293064413
0.00334658392943
0.00369825571761
0.00407969684898
0.004492713474
0.00493916506558
0.00542096214233
0.00594006369878
0.00649847433958
0.00709824111569
0.00774145006162
0.00843022243401
0.0091667106526
0.0099530939462
0.0107915737071
0.0116843685585
0.0126337091411
0.0136418326253
0.0147109769575
0.0158433748502
0.0170412475251
0.0183067982223
0.0196422054864
0.0210496162456
0.0225311386957
0.0240888350081
0.0257247138752
0.0274407229143
0.0292387409458
0.0311205701674
0.0330879282442
0.035142440335
0.037285631078
0.0395189165586
0.0418435962811
0.0442608451706
0.046771705627
0.0493770796582
0.0520777211163
0.0548742280629
0.0577670352898
0.0607564070202
0.0638424298175
0.0670250057276
0.0703038456803
0.0736784631772
0.0771481682907
0.0807120620007
0.0843690308936
0.088117742249
0.091956639539
0.0958839383627
0.0998976228404
0.103995442489
0.108174909604
0.112433297157
0.116767637252
0.121174720133
0.125651093777
0.130193064085
0.134796695689
0.139457813384
0.144172004199
0.148934620127
0.153740781511
0.158585381102
0.163463088798
0.168368357063
0.173295427035
0.178238335317
0.183190921467
0.188146836165
0.193099550068
0.198042363343
0.202968415869
0.207870698102
0.212742062588
0.217575236117
0.222362832491
0.227097365905
0.231771264906
0.236376886922
0.240906533323
0.245352465008
0.249706918472
0.253962122334
0.258110314293
0.26214375848
0.266054763167
0.2698356988
0.273479016319
0.276977265716
0.280323114801
0.283509368125
0.286528986012
0.289375103665
0.292041050282
0.29452036815
0.29680683165
0.29889446613
0.300777566595
0.302450716154
0.303908804171
0.305147044068
0.306160990718
0.306946557381
0.307500032108
0.307818093584
0.307900552269
0.307870808442
0.307796736738
0.307678353149
0.307515683241
0.307308762155
0.307057634611
0.306762354902
0.306422986901
0.306039604053
0.305612289381
0.305141135486
0.304626244541
0.304067728298
0.303465708085
0.302820314804
0.302131688937
0.301399980538
0.300625349239
0.299807964248
0.29894800435
0.298045657905
0.297101122848
0.296114606692
0.295086326527
0.294016509016
0.2929053904
0.291753216496
0.290560242697
0.289326733972
0.288052964867
0.286739219502
0.285385791576
0.283992984361
0.282561110708
0.281090493042
0.279581463364
0.278034363254
0.276449543865
0.274827365927
0.273168199747
0.271472425207
0.269740431765
0.267972618457
0.266169393893
0.26433117626
0.262458393321
0.260551482415
0.258610890458
0.25663707394
0.254630498929
0.252591641069
0.25052098558
0.248419027257
0.246286270471
0.244123229172
0.241930426884
0.239708396705
0.237457681314
0.235178832962
0.232872413478
0.230538994266
0.228179156308
0.22579349016
0.223382595956
0.220947083404
0.21848757179
0.216004689975
0.213499076396
0.210971379068
0.20842225558
0.205852373097
0.203262408362
0.200653047693
0.198024986983
0.195378931704
0.192715596901
0.190035707197
0.187339996791
0.184629209457
0.181904098546
0.179165426985
0.176413967278
0.173650501502
0.170875821314
0.168090727946
0.165296032203
0.162492554471
0.159681124708
0.156862582452
0.154037776812
0.151207566479
0.148372819715
0.145534414361
0.142693237834
0.139850187126
0.137006168806
0.134162099018
0.131318903483
0.128477517499
0.125638885938
0.122803963249
0.119973713458
0.117149110167
0.114331136552
0.111520785368
0.108719058943
0.105926969185
0.103145537574
0.10037579517
0.097618782606
0.0948755500924
0.0921471574159
0.0894346739389
0.0867391786001
0.0840617599142
0.0814035159722
0.078765554441
0.0761489925636
0.0735549571594
0.0709845846236
0.0684390209278
0.0659194216193
0.0634269518219
0.0609627862354
0.0585281091357
0.0561241143747
0.0537520053806
0.0514129951575
0.0491083062859
0.0468391709222
0.0446068307989
0.0424125372247
0.0402575510843
0.0381431428388
0.0360705925251
0.0340411897563
0.0320562337216
0.0301170331865
0.0282249064923
0.0263811815567
0.0245871958733
0.0228442965119
0.0211538401184
0.0195171929149
0.0179357306995
0.0164108388464
0.014943912306
0.0135363556048
0.0121895828454
0.0109050177063
0.00968409344255
0.00852825288495
0.00743894844057
0.00641764209254
0.00546580540012
0.00458491949869
0.00377647509973
0.00304197249083
0.0023829215357
0.00180084167417
0.00129726192216
0.000873720871726
0.000531766691017
0.000272957124307
9.88594919783e-05
1.10506905252e-05
)
;

boundaryField
{
    left
    {
        type            cyclic;
    }
    right
    {
        type            cyclic;
    }
    frontAndBack
    {
        type            empty;
    }
}


// ************************************************************************* //
