/*--------------------------------*- C++ -*----------------------------------*\
| =========                 |                                                 |
| \\      /  F ield         | OpenFOAM: The Open Source CFD Toolbox           |
|  \\    /   O peration     | Version:  dev                                   |
|   \\  /    A nd           | Web:      www.OpenFOAM.org                      |
|    \\/     M anipulation  |                                                 |
\*---------------------------------------------------------------------------*/
FoamFile
{
    version     2.0;
    format      ascii;
    class       volScalarField;
    location    "0";
    object      moment.1.populationBalance;
}
// * * * * * * * * * * * * * * * * * * * * * * * * * * * * * * * * * * * * * //

dimensions      [0 -2 0 0 0 0 0];

internalField   nonuniform List<scalar> 
500
(
3.1936032e-07
2.86274592e-06
7.9202e-06
1.546124832e-05
2.545553952e-05
3.787284512e-05
5.268305952e-05
6.98562e-05
8.936240672e-05
0.00011117194272
0.00013525519392
0.00016158266912
0.000190125
0.00022085294112
0.00025373736992
0.00028874928672
0.00032585981472
0.0003650402
0.00040626181152
0.00044949614112
0.00049471480352
0.00054188953632
0.0005909922
0.00064199477792
0.00069486937632
0.00074958822432
0.00080612367392
0.0008644482
0.00092453440032
0.00098635499552
0.00104988282912
0.00111509086752
0.0011819522
0.00125044003872
0.00132052771872
0.00139218869792
0.00146539655712
0.001540125
0.00161634785312
0.00169403906592
0.00177317271072
0.00185372298272
0.0019356642
0.00201897080352
0.00210361735712
0.00218957854752
0.00227682918432
0.0023653442
0.00245509864992
0.00254606771232
0.00263822668832
0.00273155100192
0.0028260162
0.00292159795232
0.00301827205152
0.00311601441312
0.00321480107552
0.0033146082
0.00341541207072
0.00351718909472
0.00361991580192
0.00372356884512
0.003828125
0.00393356116512
0.00403985436192
0.00414698173472
0.00425492055072
0.0043636482
0.00447314219552
0.00458338017312
0.00469433989152
0.00480599923232
0.0049183362
0.00503132892192
0.00514495564832
0.00525919475232
0.00537402472992
0.0054894242
0.00560537190432
0.00572184670752
0.00583882759712
0.00595629368352
0.0060742242
0.00619259850272
0.00631139607072
0.00643059650592
0.00655017953312
0.006670125
0.00679041287712
0.00691102325792
0.00703193635872
0.00715313251872
0.0072745922
0.00739629598752
0.00751822458912
0.00764035883552
0.00776267968032
0.0078851682
0.00800780559392
0.00813057318432
0.00825345241632
0.00837642485792
0.0084994722
0.00862257625632
0.00874571896352
0.00886888238112
0.00899204869152
0.0091152002
0.00923831933472
0.00936138864672
0.00948439080992
0.00960730862112
0.009730125
0.00985282298912
0.00997538575392
0.0100977965827
0.0102200388867
0.0103420962
0.0104639521795
0.0105855906051
0.0107069953795
0.0108281505283
0.0109490402
0.0110696486659
0.0111899603203
0.011311094426
0.0114397896298
0.0115770266494
0.0117226462886
0.0118764902506
0.0120384011382
0.012208222454
0.0123857986
0.0125709748778
0.0127635974888
0.0129635135338
0.0131705710132
0.0133846188272
0.0136055067754
0.0138330855571
0.0140672067712
0.0143077229162
0.0145544873901
0.0148073544908
0.0150661794154
0.0153308182608
0.0156011280237
0.0158769666
0.0161581927855
0.0164446662755
0.016736247665
0.0170327984483
0.0173341810198
0.017640258673
0.0179508956013
0.0182659568976
0.0185853085546
0.0189088174642
0.0192363514183
0.0195677791082
0.0199029701248
0.0202417949587
0.020584125
0.0209298325385
0.0212787907636
0.0216308737642
0.0219859565288
0.0223456965161
0.0227132800823
0.023088856339
0.0234727113748
0.0238653290855
0.0242673807669
0.0246797149777
0.0251033476654
0.0255394525495
0.0259893517522
0.0264545066722
0.0269365090916
0.0274370725108
0.0279580237027
0.0285012944779
0.0290689136557
0.0296629992298
0.0302857507237
0.0309394417264
0.0316264126022
0.0323490633661
0.0331098467189
0.0339112612349
0.0347558446967
0.0356461675711
0.0365848266213
0.0375744386519
0.0386176343813
0.0397170524409
0.040875333496
0.0420951144893
0.0433790230036
0.0447296717444
0.046149653142
0.0476415340729
0.0492078507023
0.0508511034473
0.0525737520636
0.0543782108567
0.056266844019
0.0582419610953
0.0603058125786
0.0624605856383
0.0647083999818
0.067051303853
0.0694912701691
0.0720301927963
0.0746698829678
0.0774120658443
0.080258377219
0.0832103603683
0.0862694630481
0.0894370346379
0.0927143234323
0.0961024740811
0.0996025251764
0.103215406989
0.106941939354
0.110782829699
0.114738671227
0.118809941237
0.122996999601
0.127300087371
0.131719325544
0.136254713961
0.140906130344
0.145673329481
0.150555942543
0.155553476536
0.160665313888
0.165890712173
0.171228803958
0.176678596783
0.182238973267
0.187908691335
0.193686384576
0.199570562707
0.205559612172
0.21165179684
0.217845258832
0.224138019447
0.230527980206
0.237012923996
0.243590516329
0.25025830669
0.257013729995
0.263854108148
0.270776651684
0.277778461519
0.284856530778
0.292007746723
0.299228892763
0.30651665055
0.313867602153
0.321278232323
0.328744930824
0.336263994851
0.34383163151
0.351443960384
0.359097016154
0.366786751299
0.374509038855
0.382259675238
0.39003438313
0.397828814425
0.405638553223
0.413459118894
0.421285969181
0.429114503359
0.436940065444
0.444757947449
0.452563392678
0.460351599069
0.468117722578
0.475856880592
0.483564155395
0.491234597648
0.49886322992
0.506445050236
0.513975035663
0.521448145912
0.528859326976
0.536203514782
0.543475638866
0.550670626066
0.557783404234
0.564808905957
0.571742072298
0.578577856541
0.585311227947
0.591937175518
0.598450711763
0.604846876472
0.611120740481
0.617267409447
0.623282027614
0.629159781574
0.634895904022
0.640485677503
0.645924438148
0.651207579395
0.656330555701
0.661288886228
0.666078158521
0.67069403216
0.675132242389
0.679388603725
0.683459013534
0.687339455591
0.691026003596
0.694514824667
0.697802182798
0.700884442279
0.703758071085
0.706419644213
0.708865846993
0.711093478346
0.713099453998
0.714880809653
0.71643470411
0.717758422334
0.718849378473
0.719705118825
0.720323324738
0.720701815466
0.720838550954
0.720733635917
0.720477764119
0.720120807614
0.719662828846
0.719103911871
0.71844416236
0.717683707596
0.716822696475
0.715861299507
0.714799708814
0.713638138133
0.712376822812
0.711016019814
0.709556007713
0.7079970867
0.706339578575
0.704583826753
0.702730196262
0.700779073745
0.698730867454
0.696586007259
0.694344944638
0.692008152688
0.689576126114
0.687049381237
0.684428455991
0.681713909922
0.67890632419
0.676006301568
0.673014466443
0.669931464812
0.66675796429
0.663494654102
0.660142245086
0.656701469695
0.653173081994
0.649557857662
0.645856593989
0.642070109881
0.638199245855
0.634244864043
0.630207848189
0.626089103651
0.621889557398
0.617610158015
0.613251875698
0.608815702258
0.604302651119
0.599713757316
0.595050077499
0.590312689931
0.585502694488
0.580621212659
0.575669387547
0.570648383866
0.565559387946
0.560403607729
0.55518227277
0.549896634236
0.544547964909
0.539137559184
0.533666733068
0.528136824182
0.522549191761
0.516905216651
0.511206301313
0.505453869821
0.499649367861
0.493794262734
0.487890043352
0.481938220241
0.475940325541
0.469897913005
0.463812557999
0.457685857501
0.451519430104
0.445314916012
0.439073977045
0.432798296634
0.426489579824
0.420149553272
0.413779965251
0.407382585644
0.400959205949
0.394511639277
0.388041720351
0.381551305508
0.3750422727
0.368516521489
0.361975973051
0.355422570177
0.348858277269
0.342285080343
0.335704987029
0.32912002657
0.32253224982
0.315943729248
0.309356558937
0.302772854581
0.29619475349
0.289624414583
0.283064018397
0.276515767078
0.269981884388
0.263464615701
0.256966228004
0.250489009898
0.244035271596
0.237607344926
0.231207583327
0.224838361852
0.218502077168
0.212201147555
0.205938012904
0.199715134723
0.193534996129
0.187400101856
0.181312978249
0.175276173265
0.169292256478
0.163363819072
0.157493473845
0.151683855208
0.145937619186
0.140257443416
0.134646027149
0.129106091249
0.123640378194
0.118251652073
0.112942698591
0.107716325063
0.102575360419
0.0975226552031
0.0925610815709
0.0876935332916
0.082922925748
0.0782521959356
0.0736843024633
0.0692222255532
0.0648689670405
0.0606275503736
0.0565010206139
0.0524924444363
0.0486049101287
0.0448415275921
0.0412054283408
0.0376997655022
0.0343277138169
0.0310924696387
0.0279972509345
0.0250452972844
0.0222398698817
0.0195842515329
0.0170817466577
0.0147356812887
0.0125494030721
0.0105262812669
0.00866970674546
0.00698309199333
0.00546987110914
0.00413349980475
0.00297745540518
0.00200523684861
0.00122036468641
0.000626381083116
0.000226849816443
2.53562772705e-05
)
;

boundaryField
{
    left
    {
        type            cyclic;
    }
    right
    {
        type            cyclic;
    }
    frontAndBack
    {
        type            empty;
    }
}


// ************************************************************************* //
